--------------------------------------------------------------------------
[[18430,1],0]: A high-performance Open MPI point-to-point messaging module
was unable to find any relevant network interfaces:

Module: OpenFabrics (openib)
  Host: ubuntu

Another transport will be used instead, although this may result in
lower performance.
--------------------------------------------------------------------------

     Program PWSCF v.5.1 starts on 27May2020 at 20:51:54 

     This program is part of the open-source Quantum ESPRESSO suite
     for quantum simulation of materials; please cite
         "P. Giannozzi et al., J. Phys.:Condens. Matter 21 395502 (2009);
          URL http://www.quantum-espresso.org", 
     in publications or presentations arising from this work. More details at
     http://www.quantum-espresso.org/quote

     Parallel version (MPI), running on     1 processors
     Reading input from Al_100_bulk_13.pw.in

     Current dimensions of program PWSCF are:
     Max number of different atomic species (ntypx) = 10
     Max number of k-points (npk) =  40000
     Max angular momentum in pseudopotentials (lmaxx) =  3

     Subspace diagonalization in iterative solution of the eigenvalue problem:
     a serial algorithm will be used

     Found symmetry operation: I + ( -0.5000 -0.5000  0.0000)
     This is a supercell, fractional translations are disabled

     G-vector sticks info
     --------------------
     sticks:   dense  smooth     PW     G-vecs:    dense   smooth      PW
     Sum         681     553    177                95431    68369   11655



     bravais-lattice index     =            6
     lattice parameter (alat)  =       7.6050  a.u.
     unit-cell volume          =    3078.9008 (a.u.)^3
     number of atoms/cell      =           12
     number of atomic types    =            1
     number of electrons       =        36.00
     number of Kohn-Sham states=           22
     kinetic-energy cutoff     =      30.0000  Ry
     charge density cutoff     =     150.0000  Ry
     convergence threshold     =      1.0E-06
     mixing beta               =       0.3000
     number of iterations used =            8  local-TF  mixing
     Exchange-correlation      =  SLA  PW   PBE  PBE ( 1  4  3  4 0)
     nstep                     =           50


     celldm(1)=   7.605000  celldm(2)=   0.000000  celldm(3)=   7.000000
     celldm(4)=   0.000000  celldm(5)=   0.000000  celldm(6)=   0.000000

     crystal axes: (cart. coord. in units of alat)
               a(1) = (   1.000000   0.000000   0.000000 )  
               a(2) = (   0.000000   1.000000   0.000000 )  
               a(3) = (   0.000000   0.000000   7.000000 )  

     reciprocal axes: (cart. coord. in units 2 pi/alat)
               b(1) = (  1.000000  0.000000  0.000000 )  
               b(2) = (  0.000000  1.000000  0.000000 )  
               b(3) = (  0.000000  0.000000  0.142857 )  


     PseudoPot. # 1 for Al read from file:
     ./Al.pbe-n-van.UPF
     MD5 check sum: b11ded24487aef5bc42d5c7a2e22a7b6
     Pseudo is Ultrasoft + core correction, Zval =  3.0
     Generated by new atomic code, or converted to UPF format
     Using radial grid of  893 points,  2 beta functions with: 
                l(1) =   0
                l(2) =   1
     Q(r) pseudized with  8 coefficients,  rinner =    0.900   0.900   0.900


     atomic species   valence    mass     pseudopotential
        Al             3.00    26.98000     Al( 1.00)

      8 Sym. Ops. (no inversion) found



   Cartesian axes

     site n.     atom                  positions (alat units)
         1           Al  tau(   1) = (   0.0000000   0.0000000   0.0000000  )
         2           Al  tau(   2) = (   0.5000000   0.5000000   0.0000000  )
         3           Al  tau(   3) = (   0.5000000   0.0000000   0.5000000  )
         4           Al  tau(   4) = (   0.0000000   0.5000000   0.5000000  )
         5           Al  tau(   5) = (   0.0000000   0.0000000   1.0000000  )
         6           Al  tau(   6) = (   0.5000000   0.5000000   1.0000000  )
         7           Al  tau(   7) = (   0.5000000   0.0000000   1.5000000  )
         8           Al  tau(   8) = (   0.0000000   0.5000000   1.5000000  )
         9           Al  tau(   9) = (   0.0000000   0.0000000   2.0000000  )
        10           Al  tau(  10) = (   0.5000000   0.5000000   2.0000000  )
        11           Al  tau(  11) = (   0.5000000   0.0000000   2.5000000  )
        12           Al  tau(  12) = (   0.0000000   0.5000000   2.5000000  )

     number of k points=    45  Marzari-Vanderbilt smearing, width (Ry)=  0.0250
                       cart. coord. in units 2pi/alat
        k(    1) = (   0.0000000   0.0000000   0.0000000), wk =   0.0078125
        k(    2) = (   0.0000000   0.0625000   0.0000000), wk =   0.0312500
        k(    3) = (   0.0000000   0.1250000   0.0000000), wk =   0.0312500
        k(    4) = (   0.0000000   0.1875000   0.0000000), wk =   0.0312500
        k(    5) = (   0.0000000   0.2500000   0.0000000), wk =   0.0312500
        k(    6) = (   0.0000000   0.3125000   0.0000000), wk =   0.0312500
        k(    7) = (   0.0000000   0.3750000   0.0000000), wk =   0.0312500
        k(    8) = (   0.0000000   0.4375000   0.0000000), wk =   0.0312500
        k(    9) = (   0.0000000  -0.5000000   0.0000000), wk =   0.0156250
        k(   10) = (   0.0625000   0.0625000   0.0000000), wk =   0.0312500
        k(   11) = (   0.0625000   0.1250000   0.0000000), wk =   0.0625000
        k(   12) = (   0.0625000   0.1875000   0.0000000), wk =   0.0625000
        k(   13) = (   0.0625000   0.2500000   0.0000000), wk =   0.0625000
        k(   14) = (   0.0625000   0.3125000   0.0000000), wk =   0.0625000
        k(   15) = (   0.0625000   0.3750000   0.0000000), wk =   0.0625000
        k(   16) = (   0.0625000   0.4375000   0.0000000), wk =   0.0625000
        k(   17) = (   0.0625000  -0.5000000   0.0000000), wk =   0.0312500
        k(   18) = (   0.1250000   0.1250000   0.0000000), wk =   0.0312500
        k(   19) = (   0.1250000   0.1875000   0.0000000), wk =   0.0625000
        k(   20) = (   0.1250000   0.2500000   0.0000000), wk =   0.0625000
        k(   21) = (   0.1250000   0.3125000   0.0000000), wk =   0.0625000
        k(   22) = (   0.1250000   0.3750000   0.0000000), wk =   0.0625000
        k(   23) = (   0.1250000   0.4375000   0.0000000), wk =   0.0625000
        k(   24) = (   0.1250000  -0.5000000   0.0000000), wk =   0.0312500
        k(   25) = (   0.1875000   0.1875000   0.0000000), wk =   0.0312500
        k(   26) = (   0.1875000   0.2500000   0.0000000), wk =   0.0625000
        k(   27) = (   0.1875000   0.3125000   0.0000000), wk =   0.0625000
        k(   28) = (   0.1875000   0.3750000   0.0000000), wk =   0.0625000
        k(   29) = (   0.1875000   0.4375000   0.0000000), wk =   0.0625000
        k(   30) = (   0.1875000  -0.5000000   0.0000000), wk =   0.0312500
        k(   31) = (   0.2500000   0.2500000   0.0000000), wk =   0.0312500
        k(   32) = (   0.2500000   0.3125000   0.0000000), wk =   0.0625000
        k(   33) = (   0.2500000   0.3750000   0.0000000), wk =   0.0625000
        k(   34) = (   0.2500000   0.4375000   0.0000000), wk =   0.0625000
        k(   35) = (   0.2500000  -0.5000000   0.0000000), wk =   0.0312500
        k(   36) = (   0.3125000   0.3125000   0.0000000), wk =   0.0312500
        k(   37) = (   0.3125000   0.3750000   0.0000000), wk =   0.0625000
        k(   38) = (   0.3125000   0.4375000   0.0000000), wk =   0.0625000
        k(   39) = (   0.3125000  -0.5000000   0.0000000), wk =   0.0312500
        k(   40) = (   0.3750000   0.3750000   0.0000000), wk =   0.0312500
        k(   41) = (   0.3750000   0.4375000   0.0000000), wk =   0.0625000
        k(   42) = (   0.3750000  -0.5000000   0.0000000), wk =   0.0312500
        k(   43) = (   0.4375000   0.4375000   0.0000000), wk =   0.0312500
        k(   44) = (   0.4375000  -0.5000000   0.0000000), wk =   0.0312500
        k(   45) = (  -0.5000000  -0.5000000   0.0000000), wk =   0.0078125

     Dense  grid:    95431 G-vectors     FFT dimensions: (  30,  30, 216)

     Smooth grid:    68369 G-vectors     FFT dimensions: (  27,  27, 192)

     Largest allocated arrays     est. size (Mb)     dimensions
        Kohn-Sham Wavefunctions         2.89 Mb     (    8599,   22)
        NL pseudopotentials             6.30 Mb     (    8599,   48)
        Each V/rho on FFT grid          2.97 Mb     (  194400)
        Each G-vector array             0.73 Mb     (   95431)
        G-vector shells                 0.03 Mb     (    3463)
     Largest temporary arrays     est. size (Mb)     dimensions
        Auxiliary wavefunctions        11.55 Mb     (    8599,   88)
        Each subspace H/S matrix        0.12 Mb     (      88,   88)
        Each <psi_i|beta_j> matrix      0.02 Mb     (      48,   22)
        Arrays for rho mixing          23.73 Mb     (  194400,    8)

     Initial potential from superposition of free atoms

     starting charge   35.97042, renormalised to   36.00000

     negative rho (up, down):  4.485E-05 0.000E+00
     Starting wfc are   48 randomized atomic wfcs

     total cpu time spent up to now is       30.6 secs

     per-process dynamical memory:   179.5 Mb

     Self-consistent Calculation

     iteration #  1     ecut=    30.00 Ry     beta=0.30
     Davidson diagonalization with overlap
     ethr =  1.00E-02,  avg # of iterations =  2.6

     negative rho (up, down):  1.475E-08 0.000E+00

     total cpu time spent up to now is       79.1 secs

     total energy              =    -149.51324346 Ry
     Harris-Foulkes estimate   =    -149.55348924 Ry
     estimated scf accuracy    <       0.95168346 Ry

     iteration #  2     ecut=    30.00 Ry     beta=0.30
     Davidson diagonalization with overlap
     ethr =  2.64E-03,  avg # of iterations =  1.0

     negative rho (up, down):  2.245E-04 0.000E+00

     total cpu time spent up to now is      109.1 secs

     total energy              =    -149.35650185 Ry
     Harris-Foulkes estimate   =    -149.52180550 Ry
     estimated scf accuracy    <       0.73569431 Ry

     iteration #  3     ecut=    30.00 Ry     beta=0.30
     Davidson diagonalization with overlap
     ethr =  2.04E-03,  avg # of iterations =  2.3

     total cpu time spent up to now is      143.7 secs

     total energy              =    -149.42268841 Ry
     Harris-Foulkes estimate   =    -149.48807187 Ry
     estimated scf accuracy    <       0.40484553 Ry

     iteration #  4     ecut=    30.00 Ry     beta=0.30
     Davidson diagonalization with overlap
     ethr =  1.12E-03,  avg # of iterations =  2.0

     total cpu time spent up to now is      176.2 secs

     total energy              =    -149.45149841 Ry
     Harris-Foulkes estimate   =    -149.45148318 Ry
     estimated scf accuracy    <       0.02003975 Ry

     iteration #  5     ecut=    30.00 Ry     beta=0.30
     Davidson diagonalization with overlap
     ethr =  5.57E-05,  avg # of iterations =  3.5

     total cpu time spent up to now is      214.2 secs

     total energy              =    -149.44664233 Ry
     Harris-Foulkes estimate   =    -149.45342851 Ry
     estimated scf accuracy    <       0.01960402 Ry

     iteration #  6     ecut=    30.00 Ry     beta=0.30
     Davidson diagonalization with overlap
     ethr =  5.45E-05,  avg # of iterations =  2.5

     total cpu time spent up to now is      248.8 secs

     total energy              =    -149.44838752 Ry
     Harris-Foulkes estimate   =    -149.44872149 Ry
     estimated scf accuracy    <       0.03444144 Ry

     iteration #  7     ecut=    30.00 Ry     beta=0.30
     Davidson diagonalization with overlap
     ethr =  5.45E-05,  avg # of iterations =  1.0

     negative rho (up, down):  6.605E-03 0.000E+00

     total cpu time spent up to now is      279.5 secs

     total energy              =    -149.44391359 Ry
     Harris-Foulkes estimate   =    -149.44857254 Ry
     estimated scf accuracy    <       0.02394901 Ry

     iteration #  8     ecut=    30.00 Ry     beta=0.30
     Davidson diagonalization with overlap
     ethr =  5.45E-05,  avg # of iterations =  2.1

     negative rho (up, down):  4.737E-03 0.000E+00

     total cpu time spent up to now is      313.8 secs

     total energy              =    -149.44660001 Ry
     Harris-Foulkes estimate   =    -149.44711495 Ry
     estimated scf accuracy    <       0.00802763 Ry

     iteration #  9     ecut=    30.00 Ry     beta=0.30
     Davidson diagonalization with overlap
     ethr =  2.23E-05,  avg # of iterations =  1.0

     negative rho (up, down):  1.962E-02 0.000E+00

     total cpu time spent up to now is      344.5 secs

     total energy              =    -149.44498312 Ry
     Harris-Foulkes estimate   =    -149.44671712 Ry
     estimated scf accuracy    <       0.00464715 Ry

     iteration # 10     ecut=    30.00 Ry     beta=0.30
     Davidson diagonalization with overlap
     ethr =  1.29E-05,  avg # of iterations =  3.1

     negative rho (up, down):  1.809E-02 0.000E+00

     total cpu time spent up to now is      386.5 secs

     total energy              =    -149.44674793 Ry
     Harris-Foulkes estimate   =    -149.44720421 Ry
     estimated scf accuracy    <       0.01911298 Ry

     iteration # 11     ecut=    30.00 Ry     beta=0.30
     Davidson diagonalization with overlap
     ethr =  1.29E-05,  avg # of iterations =  1.0

     negative rho (up, down):  3.986E-03 0.000E+00

     total cpu time spent up to now is      417.2 secs

     total energy              =    -149.44541734 Ry
     Harris-Foulkes estimate   =    -149.44678916 Ry
     estimated scf accuracy    <       0.01384176 Ry

     iteration # 12     ecut=    30.00 Ry     beta=0.30
     Davidson diagonalization with overlap
     ethr =  1.29E-05,  avg # of iterations =  2.0

     negative rho (up, down):  3.845E-03 0.000E+00

     total cpu time spent up to now is      451.4 secs

     total energy              =    -149.44601656 Ry
     Harris-Foulkes estimate   =    -149.44596728 Ry
     estimated scf accuracy    <       0.00095193 Ry

     iteration # 13     ecut=    30.00 Ry     beta=0.30
     Davidson diagonalization with overlap
     ethr =  2.64E-06,  avg # of iterations =  1.3

     negative rho (up, down):  7.709E-04 0.000E+00

     total cpu time spent up to now is      482.5 secs

     total energy              =    -149.44616522 Ry
     Harris-Foulkes estimate   =    -149.44603123 Ry
     estimated scf accuracy    <       0.00144967 Ry

     iteration # 14     ecut=    30.00 Ry     beta=0.30
     Davidson diagonalization with overlap
     ethr =  2.64E-06,  avg # of iterations =  2.0

     negative rho (up, down):  2.208E-03 0.000E+00

     total cpu time spent up to now is      516.7 secs

     total energy              =    -149.44617443 Ry
     Harris-Foulkes estimate   =    -149.44627941 Ry
     estimated scf accuracy    <       0.00586798 Ry

     iteration # 15     ecut=    30.00 Ry     beta=0.30
     Davidson diagonalization with overlap
     ethr =  2.64E-06,  avg # of iterations =  1.0

     negative rho (up, down):  8.098E-04 0.000E+00

     total cpu time spent up to now is      548.3 secs

     total energy              =    -149.44583094 Ry
     Harris-Foulkes estimate   =    -149.44617794 Ry
     estimated scf accuracy    <       0.00571361 Ry

     iteration # 16     ecut=    30.00 Ry     beta=0.30
     Davidson diagonalization with overlap
     ethr =  2.64E-06,  avg # of iterations =  2.0

     negative rho (up, down):  9.250E-04 0.000E+00

     total cpu time spent up to now is      584.1 secs

     total energy              =    -149.44592374 Ry
     Harris-Foulkes estimate   =    -149.44592842 Ry
     estimated scf accuracy    <       0.00113030 Ry

     iteration # 17     ecut=    30.00 Ry     beta=0.30
     Davidson diagonalization with overlap
     ethr =  2.64E-06,  avg # of iterations =  1.0

     negative rho (up, down):  1.091E-03 0.000E+00

     total cpu time spent up to now is      615.6 secs

     total energy              =    -149.44591139 Ry
     Harris-Foulkes estimate   =    -149.44593146 Ry
     estimated scf accuracy    <       0.00066070 Ry

     iteration # 18     ecut=    30.00 Ry     beta=0.30
     Davidson diagonalization with overlap
     ethr =  1.84E-06,  avg # of iterations =  1.0

     negative rho (up, down):  6.290E-04 0.000E+00

     total cpu time spent up to now is      645.5 secs

     total energy              =    -149.44589489 Ry
     Harris-Foulkes estimate   =    -149.44591691 Ry
     estimated scf accuracy    <       0.00037839 Ry

     iteration # 19     ecut=    30.00 Ry     beta=0.30
     Davidson diagonalization with overlap
     ethr =  1.05E-06,  avg # of iterations =  2.2

     negative rho (up, down):  1.673E-04 0.000E+00

     total cpu time spent up to now is      679.2 secs

     total energy              =    -149.44590863 Ry
     Harris-Foulkes estimate   =    -149.44591740 Ry
     estimated scf accuracy    <       0.00001679 Ry

     iteration # 20     ecut=    30.00 Ry     beta=0.30
     Davidson diagonalization with overlap
     ethr =  4.66E-08,  avg # of iterations =  3.6

     negative rho (up, down):  4.731E-05 0.000E+00

     total cpu time spent up to now is      720.6 secs

     total energy              =    -149.44591529 Ry
     Harris-Foulkes estimate   =    -149.44591587 Ry
     estimated scf accuracy    <       0.00002190 Ry

     iteration # 21     ecut=    30.00 Ry     beta=0.30
     Davidson diagonalization with overlap
     ethr =  4.66E-08,  avg # of iterations =  2.0

     total cpu time spent up to now is      754.1 secs

     End of self-consistent calculation

          k = 0.0000 0.0000 0.0000 (  8589 PWs)   bands (ev):

    -9.9716  -9.2996  -8.1987  -6.7163  -4.8892  -2.6968  -1.6958  -1.6958
    -1.1618  -1.0781  -1.0781  -0.3307  -0.3307  -0.0596  -0.0596   0.3053
     0.3054   1.3253   1.3253   1.4517   1.4518   1.6812

          k = 0.0000 0.0625 0.0000 (  8573 PWs)   bands (ev):

    -9.9358  -9.2639  -8.1633  -6.6812  -4.8545  -2.6624  -2.2657  -1.6628
    -1.6362  -1.1287  -1.0450  -0.6065  -0.2951  -0.0266   0.2760   0.3954
     0.7786   0.9134   1.3583   1.5446   1.7139   2.0090

          k = 0.0000 0.1250 0.0000 (  8579 PWs)   bands (ev):

    -9.8286  -9.1572  -8.0572  -6.5760  -4.7502  -3.1691  -2.5588  -2.5295
    -1.5646  -1.4829  -1.0291  -0.9466  -0.2343  -0.0170   0.0719   0.4672
     1.3879   1.4567   1.5137   1.7068   1.8117   2.1011

          k = 0.0000 0.1875 0.0000 (  8599 PWs)   bands (ev):

    -9.6500  -8.9794  -7.8805  -6.4008  -4.5768  -4.0682  -3.4217  -2.3868
    -2.3636  -1.4005  -0.9437  -0.8636  -0.7822  -0.0054   0.2361   0.5566
     0.9415   1.6206   1.7219   1.9722   2.5706   2.9512

          k = 0.0000 0.2500 0.0000 (  8583 PWs)   bands (ev):

    -9.4004  -8.7308  -7.6335  -6.1558  -4.9191  -4.3342  -4.2680  -3.2014
    -2.1464  -1.7668  -1.1702  -0.6318  -0.5523  -0.0193   0.2217   0.4656
     0.9430   1.8497   1.9109   2.1898   2.2463   3.0355

          k = 0.0000 0.3125 0.0000 (  8545 PWs)   bands (ev):

    -9.0801  -8.4118  -7.3166  -5.8415  -5.7107  -5.0560  -4.0231  -3.9833
    -2.5391  -1.8383  -0.8749  -0.7655  -0.3344  -0.2570   0.4947   0.7610
     1.2323   1.4437   2.1448   2.2796   2.3103   2.4445

          k = 0.0000 0.3750 0.0000 (  8532 PWs)   bands (ev):

    -8.6895  -8.0228  -6.9301  -6.4399  -5.7822  -5.4583  -4.7041  -3.6440
    -3.2523  -1.4657  -1.4639  -0.5133   0.0287   0.1047   0.5523   1.0786
     1.1226   1.5895   1.5951   2.1207   2.2065   2.5055

          k = 0.0000 0.4375 0.0000 (  8540 PWs)   bands (ev):

    -8.2294  -7.5645  -7.1036  -6.4749  -6.4433  -5.3608  -5.0069  -3.9026
    -3.1975  -2.1066  -1.0247  -0.0865   0.0286   0.4562   0.5315   0.9650
     1.4033   1.4963   1.5490   1.5825   2.0420   2.3520

          k = 0.0000-0.5000 0.0000 (  8538 PWs)   bands (ev):

    -7.7004  -7.7004  -7.0377  -7.0377  -5.9514  -5.9514  -4.4879  -4.4879
    -2.6847  -2.6847  -0.5241  -0.5241   0.4064   0.4064   0.9471   0.9471
     1.0241   1.0241   1.8664   1.8664   2.0412   2.0412

          k = 0.0625 0.0625 0.0000 (  8583 PWs)   bands (ev):

    -9.9000  -9.2284  -8.1279  -6.6461  -4.8197  -2.6279  -2.2326  -2.2326
    -1.6033  -1.6033  -1.0956  -0.5660  -0.5660   0.3295   0.3296   0.8374
     0.8374   0.9789   0.9790   1.7462   2.0832   2.0833

          k = 0.0625 0.1250 0.0000 (  8586 PWs)   bands (ev):

    -9.7929  -9.1216  -8.0218  -6.5409  -4.7156  -3.1353  -2.5246  -2.4970
    -2.1317  -1.5378  -1.4086  -0.9961  -0.4695  -0.0331   0.4545   0.9257
     1.0639   1.4357   1.7613   1.8424   1.9402   2.2811

          k = 0.0625 0.1875 0.0000 (  8596 PWs)   bands (ev):

    -9.6144  -8.9438  -7.8452  -6.3658  -4.5422  -4.0338  -3.3880  -2.3526
    -2.3315  -1.9661  -1.3299  -0.9063  -0.8306  -0.2896   0.6121   0.8015
     1.1164   1.3283   1.9970   2.2967   2.6211   2.7378

          k = 0.0625 0.2500 0.0000 (  8569 PWs)   bands (ev):

    -9.3648  -8.6953  -7.5983  -6.1208  -4.8843  -4.2996  -4.2334  -3.1677
    -2.1122  -1.7760  -1.6864  -1.1003  -0.5988  -0.0608   0.0334   0.8334
     1.3383   1.5299   2.1619   2.1667   2.5956   2.6037

          k = 0.0625 0.3125 0.0000 (  8533 PWs)   bands (ev):

    -9.0446  -8.3763  -7.2814  -5.8066  -5.6760  -5.0215  -3.9885  -3.9491
    -2.5061  -1.8044  -1.4293  -0.8421  -0.6810  -0.3015   0.2355   1.0518
     1.5459   1.6292   1.7299   1.8255   2.3757   2.5574

          k = 0.0625 0.3750 0.0000 (  8531 PWs)   bands (ev):

    -8.6541  -7.9875  -6.8951  -6.4050  -5.7474  -5.4236  -4.6696  -3.6096
    -3.2184  -1.4343  -1.4307  -1.0659  -0.4253   0.0610   0.5695   0.7239
     1.0595   1.5874   1.6884   1.9371   2.1579   2.2597

          k = 0.0625 0.4375 0.0000 (  8517 PWs)   bands (ev):

    -8.1941  -7.5293  -7.0685  -6.4399  -6.4083  -5.3261  -4.9722  -3.8684
    -3.1631  -2.0734  -0.9936  -0.6418   0.0041   0.0922   0.4396   0.4871
     1.0385   1.0640   1.5251   1.9818   2.0885   2.4472

          k = 0.0625-0.5000 0.0000 (  8546 PWs)   bands (ev):

    -7.6652  -7.6652  -7.0026  -7.0026  -5.9165  -5.9165  -4.4534  -4.4534
    -2.6507  -2.6507  -0.5114  -0.5114  -0.1014  -0.1014   0.4990   0.4990
     0.9801   0.9801   1.5310   1.5310   2.4399   2.4399

          k = 0.1250 0.1250 0.0000 (  8581 PWs)   bands (ev):

    -9.6857  -9.0149  -7.9158  -6.4358  -4.6116  -3.0342  -3.0341  -2.4215
    -2.3966  -2.3966  -1.3396  -1.3396  -0.8969   0.0732   0.0733   1.5216
     1.5216   1.7803   1.7803   1.9305   2.2112   2.2112

          k = 0.1250 0.1875 0.0000 (  8562 PWs)   bands (ev):

    -9.5074  -8.8372  -7.7393  -6.2607  -4.4381  -3.9309  -3.2870  -2.8637
    -2.2982  -2.2497  -2.1498  -1.1810  -0.7860  -0.7314   0.2349   0.9625
     1.6785   1.9667   2.0282   2.3533   2.5782   2.7201

          k = 0.1250 0.2500 0.0000 (  8568 PWs)   bands (ev):

    -9.2580  -8.5889  -7.4926  -6.0160  -4.7807  -4.1958  -4.1306  -3.0680
    -2.6291  -2.0101  -1.9822  -1.6299  -0.9291  -0.5002   0.1224   0.4991
     1.6058   1.8356   2.1261   2.2707   2.4153   2.5025

          k = 0.1250 0.3125 0.0000 (  8539 PWs)   bands (ev):

    -8.9380  -8.2702  -7.1759  -5.7020  -5.5720  -4.9180  -3.8850  -3.8469
    -2.4292  -2.2953  -1.7035  -1.6843  -0.6321  -0.6193  -0.2036   0.7804
     0.8852   1.4636   1.5216   2.2794   2.5087   2.5766

          k = 0.1250 0.3750 0.0000 (  8523 PWs)   bands (ev):

    -8.5478  -7.8816  -6.7899  -6.3003  -5.6432  -5.3193  -4.5662  -3.5064
    -3.1171  -1.9502  -1.4015  -1.3328  -1.2337  -0.2678   0.1569   0.2022
     0.8225   0.8315   1.1344   1.8615   2.2748   2.6127

          k = 0.1250 0.4375 0.0000 (  8525 PWs)   bands (ev):

    -8.0881  -7.4238  -6.9633  -6.3351  -6.3036  -5.2221  -4.8683  -3.7656
    -3.0606  -1.9745  -1.5173  -0.9154  -0.8660  -0.4054   0.1008   0.1962
     0.2717   0.5869   1.2383   1.4601   1.7673   2.6515

          k = 0.1250-0.5000 0.0000 (  8522 PWs)   bands (ev):

    -7.5597  -7.5597  -6.8975  -6.8975  -5.8121  -5.8121  -4.3499  -4.3499
    -2.5492  -2.5492  -1.0290  -1.0290  -0.3670  -0.3670  -0.3578  -0.3578
     0.6787   0.6787   1.0655   1.0655   2.1034   2.1034

          k = 0.1875 0.1875 0.0000 (  8563 PWs)   bands (ev):

    -9.3292  -8.6598  -7.5630  -6.0859  -4.2651  -3.7605  -3.7605  -3.1178
    -3.1178  -2.0787  -2.0505  -2.0505  -0.6274  -0.6273  -0.5662   1.1249
     1.1249   1.5539   2.2237   2.3598   2.8296   2.8296

          k = 0.1875 0.2500 0.0000 (  8550 PWs)   bands (ev):

    -9.0802  -8.4118  -7.3166  -5.8416  -4.6082  -4.0233  -3.9605  -3.5200
    -2.9616  -2.8045  -1.8406  -1.8236  -1.4459  -0.4018  -0.3360   0.3232
     0.7768   1.3386   1.4159   2.3980   2.4471   2.6232

          k = 0.1875 0.3125 0.0000 (  8543 PWs)   bands (ev):

    -8.7606  -8.0934  -7.0003  -5.5279  -5.3987  -4.7456  -3.7130  -3.6778
    -3.2156  -2.5633  -2.2318  -1.5376  -1.5049  -0.4730  -0.0644  -0.0421
     0.0304   0.6621   1.4716   1.6949   1.9031   2.8566

          k = 0.1875 0.3750 0.0000 (  8512 PWs)   bands (ev):

    -8.3709  -7.7053  -6.6147  -6.1261  -5.4696  -5.1456  -4.3943  -3.3350
    -2.9677  -2.8149  -2.1959  -1.1860  -1.1545  -1.1384  -0.6439  -0.0409
     0.2824   0.3236   0.9713   1.0065   2.0874   2.4147

          k = 0.1875 0.4375 0.0000 (  8506 PWs)   bands (ev):

    -7.9117  -7.2480  -6.7883  -6.1604  -6.1292  -5.0490  -4.6954  -3.5952
    -2.8905  -2.3963  -1.8599  -1.6896  -1.3385  -0.7056  -0.6910  -0.6713
     0.3694   0.3801   0.7025   0.7353   1.8127   1.8246

          k = 0.1875-0.5000 0.0000 (  8526 PWs)   bands (ev):

    -7.3839  -7.3839  -6.7224  -6.7224  -5.6382  -5.6382  -4.1779  -4.1779
    -2.3817  -2.3817  -1.8941  -1.8941  -1.2392  -1.2392  -0.2879  -0.2879
    -0.1044  -0.1044   1.0746   1.0746   1.4000   1.4000

          k = 0.2500 0.2500 0.0000 (  8533 PWs)   bands (ev):

    -8.8315  -8.1640  -7.0704  -5.5975  -4.3679  -4.3679  -3.7819  -3.7214
    -3.7214  -2.6482  -2.6481  -1.6058  -1.2200  -1.2200  -0.1080  -0.0292
     0.5443   0.5443   0.6027   1.6364   2.6628   2.6628

          k = 0.2500 0.3125 0.0000 (  8542 PWs)   bands (ev):

    -8.5124  -7.8463  -6.7548  -5.2846  -5.1562  -4.5057  -4.0578  -3.4995
    -3.4726  -3.3412  -2.3509  -1.9831  -1.3218  -0.9270  -0.7681  -0.2018
    -0.1644   0.1915   0.8219   0.8851   1.9712   2.3069

          k = 0.2500 0.3750 0.0000 (  8516 PWs)   bands (ev):

    -8.1234  -7.4589  -6.3700  -5.8823  -5.2272  -4.9030  -4.1555  -3.6829
    -3.0958  -3.0279  -2.7040  -1.9667  -1.5298  -0.9425  -0.8935  -0.8608
    -0.5174   0.1934   0.5368   1.0148   1.4662   1.6297

          k = 0.2500 0.4375 0.0000 (  8530 PWs)   bands (ev):

    -7.6651  -7.0024  -6.5436  -5.9165  -5.8855  -4.8074  -4.4539  -3.3748
    -3.2142  -2.6542  -2.5903  -2.1532  -1.5598  -1.5303  -1.4971  -0.5536
    -0.3620  -0.1041   0.5762   0.8133   1.1476   1.7105

          k = 0.2500-0.5000 0.0000 (  8542 PWs)   bands (ev):

    -7.1382  -7.1382  -6.4777  -6.4777  -5.3953  -5.3953  -3.9383  -3.9383
    -2.7246  -2.7246  -2.1912  -2.1912  -2.0240  -2.0240  -1.0293  -1.0293
     0.0368   0.0368   0.3828   0.3828   1.4978   1.4978

          k = 0.3125 0.3125 0.0000 (  8538 PWs)   bands (ev):

    -8.1941  -7.5293  -6.4399  -4.9725  -4.8455  -4.8455  -4.1968  -4.1968
    -3.1646  -3.1195  -3.1194  -1.6875  -1.6875  -1.5943  -0.9616  -0.9248
     0.0844   0.0844   0.1303   0.4700   1.5678   2.2212

          k = 0.3125 0.3750 0.0000 (  8528 PWs)   bands (ev):

    -7.8059  -7.1427  -6.0558  -5.5698  -4.9173  -4.5919  -4.4651  -3.9057
    -3.7487  -2.7905  -2.7512  -2.3902  -2.2840  -1.6276  -1.3266  -0.6875
    -0.6003  -0.4920   0.4282   0.6822   1.0202   1.5855

          k = 0.3125 0.4375 0.0000 (  8526 PWs)   bands (ev):

    -7.3485  -6.6872  -6.2295  -5.6033  -5.5731  -4.4990  -4.1445  -4.0206
    -3.3636  -3.0436  -2.9237  -2.3906  -2.3008  -2.2270  -1.2802  -1.2262
    -0.8455  -0.1640   0.1885   0.6839   1.1448   1.3013

          k = 0.3125-0.5000 0.0000 (  8514 PWs)   bands (ev):

    -6.8228  -6.8228  -6.1636  -6.1636  -5.0838  -5.0838  -3.6476  -3.6476
    -3.4835  -3.4835  -2.8567  -2.8567  -1.8315  -1.8315  -1.7953  -1.7953
    -0.3651  -0.3651   0.3093   0.3093   1.4549   1.4549

          k = 0.3750 0.3750 0.0000 (  8518 PWs)   bands (ev):

    -7.4188  -6.7572  -5.6729  -5.1888  -5.1888  -4.5383  -4.5383  -4.2133
    -3.4584  -3.4584  -2.9901  -2.4570  -2.2949  -2.0242  -2.0241  -1.2920
    -0.2473  -0.2473  -0.2310   0.1238   1.2358   1.8976

          k = 0.3750 0.4375 0.0000 (  8527 PWs)   bands (ev):

    -6.9627  -6.3030  -5.8466  -5.2222  -5.1929  -4.7383  -4.1776  -4.0223
    -3.7843  -3.6187  -3.0201  -2.9905  -2.6628  -1.9677  -1.9287  -1.5951
    -0.8675  -0.4967   0.1634   0.1756   1.3243   1.3260

          k = 0.3750-0.5000 0.0000 (  8516 PWs)   bands (ev):

    -6.4383  -6.4383  -5.7810  -5.7810  -4.7057  -4.7057  -4.2241  -4.2241
    -3.5663  -3.5663  -3.2481  -3.2481  -2.5028  -2.5028  -1.4835  -1.4835
    -1.0439  -1.0439   0.4841   0.4841   0.9497   0.9497

          k = 0.4375 0.4375 0.0000 (  8530 PWs)   bands (ev):

    -6.5080  -5.8503  -5.3959  -5.3959  -4.7745  -4.7442  -4.7442  -4.2923
    -3.6629  -3.6629  -3.6340  -3.3163  -2.5705  -2.2272  -2.2272  -1.5516
    -1.1108  -0.4472  -0.4472   0.4171   0.8842   1.7018

          k = 0.4375-0.5000 0.0000 (  8546 PWs)   bands (ev):

    -5.9855  -5.9855  -5.3310  -5.3310  -4.8755  -4.8755  -4.3141  -4.3141
    -4.1599  -4.1599  -3.1551  -3.1551  -2.7998  -2.7998  -1.7298  -1.7298
    -1.0015  -1.0015   0.0308   0.0308   1.1927   1.1928

          k =-0.5000-0.5000 0.0000 (  8532 PWs)   bands (ev):

    -5.4651  -5.4651  -5.4651  -5.4651  -4.8128  -4.8127  -4.8127  -4.8127
    -3.7310  -3.7310  -3.7309  -3.7309  -2.2950  -2.2950  -2.2950  -2.2950
    -0.5139  -0.5139  -0.5139  -0.5139   1.6363   1.6363

     the Fermi energy is     1.0544 ev

!    total energy              =    -149.44591834 Ry
     Harris-Foulkes estimate   =    -149.44591706 Ry
     estimated scf accuracy    <       0.00000072 Ry

     The total energy is the sum of the following terms:

     one-electron contribution =    -779.62857927 Ry
     hartree contribution      =     398.60700236 Ry
     xc contribution           =    -119.98533293 Ry
     ewald contribution        =     351.56144637 Ry
     smearing contrib. (-TS)   =      -0.00045487 Ry

     convergence has been achieved in  21 iterations

     Forces acting on atoms (Ry/au):

     atom    1 type  1   force =     0.00000000    0.00000000   -0.00295535
     atom    2 type  1   force =     0.00000000    0.00000000   -0.00295555
     atom    3 type  1   force =     0.00000000    0.00000000    0.00198275
     atom    4 type  1   force =     0.00000000    0.00000000    0.00198275
     atom    5 type  1   force =     0.00000000    0.00000000   -0.00037402
     atom    6 type  1   force =     0.00000000    0.00000000   -0.00037349
     atom    7 type  1   force =     0.00000000    0.00000000    0.00037094
     atom    8 type  1   force =     0.00000000    0.00000000    0.00037094
     atom    9 type  1   force =     0.00000000    0.00000000   -0.00197391
     atom   10 type  1   force =     0.00000000    0.00000000   -0.00197382
     atom   11 type  1   force =     0.00000000    0.00000000    0.00294937
     atom   12 type  1   force =     0.00000000    0.00000000    0.00294937

     Total force =     0.007147     Total SCF correction =     0.001166
     SCF correction compared to forces is large: reduce conv_thr to get better values


     entering subroutine stress ...

          total   stress  (Ry/bohr**3)                   (kbar)     P=   -7.90
  -0.00008207   0.00000000   0.00000000        -12.07      0.00      0.00
   0.00000000  -0.00008207   0.00000000          0.00    -12.07      0.00
   0.00000000   0.00000000   0.00000295          0.00      0.00      0.43


     BFGS Geometry Optimization

     number of scf cycles    =   1
     number of bfgs steps    =   0

     energy   new            =    -149.4459183368 Ry

     new trust radius        =       0.0029555466 bohr
     new conv_thr            =       0.0000010000 Ry


ATOMIC_POSITIONS (crystal)
Al       0.000000000   0.000000000  -0.000055515
Al       0.500000000   0.500000000  -0.000055519
Al       0.500000000   0.000000000   0.071465817
Al       0.000000000   0.500000000   0.071465817
Al       0.000000000   0.000000000   0.142850117
Al       0.500000000   0.500000000   0.142850127
Al       0.500000000   0.000000000   0.214292682
Al       0.000000000   0.500000000   0.214292682
Al       0.000000000   0.000000000   0.285677207
Al       0.500000000   0.500000000   0.285677208
Al       0.500000000   0.000000000   0.357198260
Al       0.000000000   0.500000000   0.357198260



     Writing output data file Al_100_3_4.save
     NEW-OLD atomic charge density approx. for the potential

     total cpu time spent up to now is      769.0 secs

     per-process dynamical memory:   197.4 Mb

     Self-consistent Calculation

     iteration #  1     ecut=    30.00 Ry     beta=0.30
     Davidson diagonalization with overlap
     ethr =  1.00E-06,  avg # of iterations =  2.0

     total cpu time spent up to now is      806.5 secs

     total energy              =    -149.44596844 Ry
     Harris-Foulkes estimate   =    -149.44597050 Ry
     estimated scf accuracy    <       0.00006861 Ry

     iteration #  2     ecut=    30.00 Ry     beta=0.30
     Davidson diagonalization with overlap
     ethr =  1.91E-07,  avg # of iterations =  1.8

     negative rho (up, down):  1.646E-05 0.000E+00

     total cpu time spent up to now is      838.9 secs

     total energy              =    -149.44596094 Ry
     Harris-Foulkes estimate   =    -149.44597071 Ry
     estimated scf accuracy    <       0.00006000 Ry

     iteration #  3     ecut=    30.00 Ry     beta=0.30
     Davidson diagonalization with overlap
     ethr =  1.67E-07,  avg # of iterations =  2.4

     negative rho (up, down):  9.591E-06 0.000E+00

     total cpu time spent up to now is      875.0 secs

     total energy              =    -149.44596586 Ry
     Harris-Foulkes estimate   =    -149.44596769 Ry
     estimated scf accuracy    <       0.00001350 Ry

     iteration #  4     ecut=    30.00 Ry     beta=0.30
     Davidson diagonalization with overlap
     ethr =  3.75E-08,  avg # of iterations =  2.0

     negative rho (up, down):  9.231E-06 0.000E+00

     total cpu time spent up to now is      910.0 secs

     total energy              =    -149.44596714 Ry
     Harris-Foulkes estimate   =    -149.44596714 Ry
     estimated scf accuracy    <       0.00000141 Ry

     iteration #  5     ecut=    30.00 Ry     beta=0.30
     Davidson diagonalization with overlap
     ethr =  3.93E-09,  avg # of iterations =  2.0

     negative rho (up, down):  9.606E-06 0.000E+00

     total cpu time spent up to now is      944.2 secs

     total energy              =    -149.44596719 Ry
     Harris-Foulkes estimate   =    -149.44596718 Ry
     estimated scf accuracy    <       0.00000159 Ry

     iteration #  6     ecut=    30.00 Ry     beta=0.30
     Davidson diagonalization with overlap
     ethr =  3.93E-09,  avg # of iterations =  1.1

     negative rho (up, down):  1.706E-05 0.000E+00

     total cpu time spent up to now is      976.4 secs

     total energy              =    -149.44596702 Ry
     Harris-Foulkes estimate   =    -149.44596722 Ry
     estimated scf accuracy    <       0.00000272 Ry

     iteration #  7     ecut=    30.00 Ry     beta=0.30
     Davidson diagonalization with overlap
     ethr =  3.93E-09,  avg # of iterations =  2.2

     negative rho (up, down):  1.410E-05 0.000E+00

     total cpu time spent up to now is     1009.8 secs

     total energy              =    -149.44596742 Ry
     Harris-Foulkes estimate   =    -149.44596715 Ry
     estimated scf accuracy    <       0.00000343 Ry

     iteration #  8     ecut=    30.00 Ry     beta=0.30
     Davidson diagonalization with overlap
     ethr =  3.93E-09,  avg # of iterations =  2.1

     negative rho (up, down):  1.406E-05 0.000E+00

     total cpu time spent up to now is     1044.9 secs

     total energy              =    -149.44596773 Ry
     Harris-Foulkes estimate   =    -149.44596752 Ry
     estimated scf accuracy    <       0.00001046 Ry

     iteration #  9     ecut=    30.00 Ry     beta=0.30
     Davidson diagonalization with overlap
     ethr =  3.93E-09,  avg # of iterations =  1.0

     negative rho (up, down):  1.414E-05 0.000E+00

     total cpu time spent up to now is     1076.7 secs

     total energy              =    -149.44596834 Ry
     Harris-Foulkes estimate   =    -149.44596776 Ry
     estimated scf accuracy    <       0.00001435 Ry

     iteration # 10     ecut=    30.00 Ry     beta=0.30
     Davidson diagonalization with overlap
     ethr =  3.93E-09,  avg # of iterations =  2.5

     negative rho (up, down):  9.368E-06 0.000E+00

     total cpu time spent up to now is     1112.8 secs

     total energy              =    -149.44596762 Ry
     Harris-Foulkes estimate   =    -149.44596848 Ry
     estimated scf accuracy    <       0.00002998 Ry

     iteration # 11     ecut=    30.00 Ry     beta=0.30
     Davidson diagonalization with overlap
     ethr =  3.93E-09,  avg # of iterations =  2.0

     negative rho (up, down):  6.063E-06 0.000E+00

     total cpu time spent up to now is     1148.8 secs

     total energy              =    -149.44596654 Ry
     Harris-Foulkes estimate   =    -149.44596774 Ry
     estimated scf accuracy    <       0.00001578 Ry

     iteration # 12     ecut=    30.00 Ry     beta=0.30
     Davidson diagonalization with overlap
     ethr =  3.93E-09,  avg # of iterations =  2.9

     total cpu time spent up to now is     1183.3 secs

     End of self-consistent calculation

          k = 0.0000 0.0000 0.0000 (  8589 PWs)   bands (ev):

    -9.9683  -9.2944  -8.1918  -6.7143  -4.8883  -2.6963  -1.6925  -1.6925
    -1.1612  -1.0727  -1.0727  -0.3274  -0.3273  -0.0522  -0.0522   0.3101
     0.3102   1.3272   1.3272   1.4585   1.4586   1.6816

          k = 0.0000 0.0625 0.0000 (  8573 PWs)   bands (ev):

    -9.9325  -9.2587  -8.1565  -6.6792  -4.8536  -2.6618  -2.2624  -1.6595
    -1.6308  -1.1281  -1.0396  -0.5994  -0.2919  -0.0191   0.2802   0.3995
     0.7818   0.9173   1.3602   1.5511   1.7142   2.0160

          k = 0.0000 0.1250 0.0000 (  8579 PWs)   bands (ev):

    -9.8253  -9.1519  -8.0503  -6.5740  -4.7493  -3.1658  -2.5582  -2.5242
    -1.5613  -1.4759  -1.0285  -0.9412  -0.2316  -0.0142   0.0794   0.4724
     1.3910   1.4586   1.5194   1.7074   1.8121   2.1067

          k = 0.0000 0.1875 0.0000 (  8599 PWs)   bands (ev):

    -9.6467  -8.9742  -7.8737  -6.3989  -4.5759  -4.0649  -3.4164  -2.3862
    -2.3566  -1.3972  -0.9416  -0.8630  -0.7768  -0.0021   0.2436   0.5610
     0.9431   1.6224   1.7278   1.9727   2.5736   2.9520

          k = 0.0000 0.2500 0.0000 (  8583 PWs)   bands (ev):

    -9.3971  -8.7256  -7.6267  -6.1538  -4.9158  -4.3333  -4.2628  -3.1944
    -2.1458  -1.7648  -1.1669  -0.6313  -0.5469  -0.0181   0.2250   0.4731
     0.9478   1.8515   1.9153   2.1903   2.2491   3.0388

          k = 0.0000 0.3125 0.0000 (  8545 PWs)   bands (ev):

    -9.0768  -8.4065  -7.3097  -5.8396  -5.7074  -5.0508  -4.0221  -3.9764
    -2.5371  -1.8377  -0.8716  -0.7645  -0.3338  -0.2515   0.4979   0.7685
     1.2372   1.4443   2.1467   2.2829   2.3168   2.4451

          k = 0.0000 0.3750 0.0000 (  8532 PWs)   bands (ev):

    -8.6862  -8.0176  -6.9233  -6.4366  -5.7770  -5.4564  -4.6972  -3.6431
    -3.2503  -1.4647  -1.4633  -0.5100   0.0293   0.1101   0.5538   1.0809
     1.1301   1.5927   1.6000   2.1216   2.2120   2.5074

          k = 0.0000 0.4375 0.0000 (  8540 PWs)   bands (ev):

    -8.2261  -7.5593  -7.1003  -6.4681  -6.4380  -5.3539  -5.0049  -3.9006
    -3.1965  -2.1056  -1.0241  -0.0832   0.0293   0.4568   0.5369   0.9683
     1.4064   1.4969   1.5566   1.5879   2.0471   2.3549

          k = 0.0000-0.5000 0.0000 (  8538 PWs)   bands (ev):

    -7.6971  -7.6971  -7.0325  -7.0325  -5.9445  -5.9445  -4.4859  -4.4859
    -2.6837  -2.6837  -0.5234  -0.5234   0.4097   0.4097   0.9477   0.9477
     1.0296   1.0296   1.8696   1.8696   2.0487   2.0487

          k = 0.0625 0.0625 0.0000 (  8583 PWs)   bands (ev):

    -9.8967  -9.2232  -8.1211  -6.6442  -4.8188  -2.6273  -2.2293  -2.2293
    -1.5980  -1.5980  -1.0950  -0.5588  -0.5588   0.3328   0.3328   0.8399
     0.8399   0.9836   0.9836   1.7466   2.0900   2.0900

          k = 0.0625 0.1250 0.0000 (  8586 PWs)   bands (ev):

    -9.7895  -9.1164  -8.0150  -6.5390  -4.7147  -3.1320  -2.5240  -2.4917
    -2.1284  -1.5321  -1.4019  -0.9956  -0.4623  -0.0312   0.4579   0.9277
     1.0690   1.4389   1.7621   1.8429   1.9454   2.2875

          k = 0.0625 0.1875 0.0000 (  8596 PWs)   bands (ev):

    -9.6110  -8.9386  -7.8384  -6.3638  -4.5413  -4.0305  -3.3827  -2.3520
    -2.3245  -1.9628  -1.3245  -0.9041  -0.8300  -0.2825   0.6154   0.8030
     1.1184   1.3328   1.9975   2.3028   2.6243   2.7388

          k = 0.0625 0.2500 0.0000 (  8569 PWs)   bands (ev):

    -9.3615  -8.6901  -7.5915  -6.1189  -4.8810  -4.2986  -4.2282  -3.1608
    -2.1116  -1.7735  -1.6835  -1.0949  -0.5983  -0.0537   0.0344   0.8367
     1.3403   1.5350   2.1629   2.1676   2.6021   2.6064

          k = 0.0625 0.3125 0.0000 (  8533 PWs)   bands (ev):

    -9.0413  -8.3711  -7.2746  -5.8047  -5.6727  -5.0162  -3.9875  -3.9422
    -2.5041  -1.8038  -1.4260  -0.8378  -0.6790  -0.3009   0.2427   1.0547
     1.5471   1.6311   1.7331   1.8306   2.3811   2.5581

          k = 0.0625 0.3750 0.0000 (  8531 PWs)   bands (ev):

    -8.6508  -7.9823  -6.8882  -6.4017  -5.7421  -5.4216  -4.6627  -3.6086
    -3.2163  -1.4333  -1.4301  -1.0626  -0.4200   0.0616   0.5750   0.7265
     1.0627   1.5905   1.6937   1.9387   2.1616   2.2624

          k = 0.0625 0.4375 0.0000 (  8517 PWs)   bands (ev):

    -8.1908  -7.5241  -7.0652  -6.4330  -6.4031  -5.3192  -4.9702  -3.8664
    -3.1622  -2.0724  -0.9930  -0.6386   0.0094   0.0929   0.4429   0.4877
     1.0458   1.0694   1.5258   1.9850   2.0958   2.4491

          k = 0.0625-0.5000 0.0000 (  8546 PWs)   bands (ev):

    -7.6619  -7.6619  -6.9974  -6.9974  -5.9097  -5.9097  -4.4514  -4.4514
    -2.6497  -2.6497  -0.5105  -0.5105  -0.0983  -0.0983   0.5043   0.5043
     0.9808   0.9808   1.5383   1.5383   2.4430   2.4430

          k = 0.1250 0.1250 0.0000 (  8581 PWs)   bands (ev):

    -9.6824  -9.0097  -7.9090  -6.4339  -4.6107  -3.0309  -3.0308  -2.4209
    -2.3914  -2.3913  -1.3325  -1.3325  -0.8964   0.0752   0.0752   1.5250
     1.5251   1.7817   1.7818   1.9310   2.2156   2.2156

          k = 0.1250 0.1875 0.0000 (  8562 PWs)   bands (ev):

    -9.5041  -8.8320  -7.7325  -6.2587  -4.4372  -3.9276  -3.2818  -2.8604
    -2.2923  -2.2491  -2.1434  -1.1739  -0.7841  -0.7308   0.2368   0.9636
     1.6818   1.9676   2.0292   2.3584   2.5809   2.7232

          k = 0.1250 0.2500 0.0000 (  8568 PWs)   bands (ev):

    -9.2547  -8.5837  -7.4858  -6.0140  -4.7774  -4.1949  -4.1254  -3.0610
    -2.6259  -2.0095  -1.9769  -1.6277  -0.9221  -0.4996   0.1232   0.5013
     1.6089   1.8385   2.1272   2.2761   2.4159   2.5034

          k = 0.1250 0.3125 0.0000 (  8539 PWs)   bands (ev):

    -8.9347  -8.2650  -7.1691  -5.7000  -5.5687  -4.9128  -3.8841  -3.8400
    -2.4271  -2.2920  -1.7029  -1.6789  -0.6250  -0.6184  -0.2030   0.7825
     0.8884   1.4646   1.5270   2.2824   2.5145   2.5775

          k = 0.1250 0.3750 0.0000 (  8523 PWs)   bands (ev):

    -8.5445  -7.8764  -6.7830  -6.2970  -5.6379  -5.3173  -4.5594  -3.5054
    -3.1151  -1.9469  -1.3984  -1.3322  -1.2306  -0.2608   0.1575   0.2054
     0.8233   0.8368   1.1364   1.8687   2.2756   2.6158

          k = 0.1250 0.4375 0.0000 (  8525 PWs)   bands (ev):

    -8.0848  -7.4186  -6.9600  -6.3282  -6.2984  -5.2152  -4.8663  -3.7636
    -3.0597  -1.9735  -1.5140  -0.9146  -0.8608  -0.4023   0.1046   0.2014
     0.2756   0.5876   1.2455   1.4616   1.7687   2.6535

          k = 0.1250-0.5000 0.0000 (  8522 PWs)   bands (ev):

    -7.5564  -7.5564  -6.8923  -6.8923  -5.8052  -5.8052  -4.3479  -4.3479
    -2.5482  -2.5482  -1.0257  -1.0257  -0.3617  -0.3617  -0.3571  -0.3571
     0.6859   0.6859   1.0662   1.0662   2.1055   2.1055

          k = 0.1875 0.1875 0.0000 (  8563 PWs)   bands (ev):

    -9.3259  -8.6546  -7.5562  -6.0839  -4.2642  -3.7572  -3.7572  -3.1126
    -3.1126  -2.0781  -2.0435  -2.0434  -0.6254  -0.6254  -0.5657   1.1259
     1.1259   1.5570   2.2291   2.3605   2.8325   2.8325

          k = 0.1875 0.2500 0.0000 (  8550 PWs)   bands (ev):

    -9.0769  -8.4065  -7.3097  -5.8396  -4.6049  -4.0224  -3.9553  -3.5168
    -2.9556  -2.7982  -1.8400  -1.8165  -1.4439  -0.4000  -0.3355   0.3244
     0.7800   1.3397   1.4213   2.4036   2.4480   2.6254

          k = 0.1875 0.3125 0.0000 (  8543 PWs)   bands (ev):

    -8.7573  -8.0882  -6.9935  -5.5259  -5.3954  -4.7404  -3.7121  -3.6709
    -3.2123  -2.5580  -2.2296  -1.5369  -1.4980  -0.4723  -0.0621  -0.0415
     0.0337   0.6674   1.4727   1.7020   1.9038   2.8571

          k = 0.1875 0.3750 0.0000 (  8512 PWs)   bands (ev):

    -8.3676  -7.7001  -6.6079  -6.1228  -5.4644  -5.1436  -4.3874  -3.3340
    -2.9657  -2.8116  -2.1906  -1.1852  -1.1537  -1.1314  -0.6408  -0.0357
     0.2845   0.3244   0.9722   1.0137   2.0882   2.4156

          k = 0.1875 0.4375 0.0000 (  8506 PWs)   bands (ev):

    -7.9084  -7.2428  -6.7850  -6.1536  -6.1240  -5.0422  -4.6934  -3.5932
    -2.8895  -2.3929  -1.8571  -1.6861  -1.3353  -0.6987  -0.6904  -0.6661
     0.3702   0.3873   0.7045   0.7360   1.8147   1.8255

          k = 0.1875-0.5000 0.0000 (  8526 PWs)   bands (ev):

    -7.3806  -7.3806  -6.7172  -6.7172  -5.6313  -5.6313  -4.1759  -4.1759
    -2.3807  -2.3807  -1.8908  -1.8908  -1.2340  -1.2340  -0.2848  -0.2847
    -0.0998  -0.0998   1.0760   1.0760   1.4014   1.4014

          k = 0.2500 0.2500 0.0000 (  8533 PWs)   bands (ev):

    -8.8282  -8.1588  -7.0636  -5.5955  -4.3646  -4.3646  -3.7810  -3.7162
    -3.7162  -2.6411  -2.6411  -1.6052  -1.2181  -1.2180  -0.1074  -0.0259
     0.5453   0.5453   0.6080   1.6436   2.6638   2.6638

          k = 0.2500 0.3125 0.0000 (  8542 PWs)   bands (ev):

    -8.5091  -7.8411  -6.7480  -5.2826  -5.1529  -4.5005  -4.0545  -3.4936
    -3.4716  -3.3350  -2.3438  -1.9812  -1.3210  -0.9252  -0.7650  -0.2007
    -0.1592   0.1922   0.8229   0.8923   1.9720   2.3090

          k = 0.2500 0.3750 0.0000 (  8516 PWs)   bands (ev):

    -8.1201  -7.4537  -6.3631  -5.8790  -5.2219  -4.9010  -4.1487  -3.6796
    -3.0949  -3.0226  -2.7019  -1.9599  -1.5266  -0.9418  -0.8929  -0.8555
    -0.5151   0.2006   0.5374   1.0159   1.4669   1.6318

          k = 0.2500 0.4375 0.0000 (  8530 PWs)   bands (ev):

    -7.6618  -6.9972  -6.5403  -5.9096  -5.8803  -4.8005  -4.4519  -3.3728
    -3.2109  -2.6532  -2.5850  -2.1499  -1.5589  -1.5234  -1.4919  -0.5506
    -0.3572  -0.1020   0.5770   0.8147   1.1491   1.7114

          k = 0.2500-0.5000 0.0000 (  8542 PWs)   bands (ev):

    -7.1349  -7.1349  -6.4725  -6.4725  -5.3884  -5.3884  -3.9363  -3.9363
    -2.7213  -2.7213  -2.1886  -2.1886  -2.0204  -2.0204  -1.0224  -1.0224
     0.0377   0.0377   0.3849   0.3849   1.4987   1.4987

          k = 0.3125 0.3125 0.0000 (  8538 PWs)   bands (ev):

    -8.1908  -7.5241  -6.4331  -4.9705  -4.8422  -4.8422  -4.1916  -4.1916
    -3.1636  -3.1125  -3.1125  -1.6856  -1.6856  -1.5911  -0.9610  -0.9196
     0.0854   0.0854   0.1374   0.4707   1.5699   2.2222

          k = 0.3125 0.3750 0.0000 (  8528 PWs)   bands (ev):

    -7.8026  -7.1375  -6.0490  -5.5665  -4.9120  -4.5899  -4.4618  -3.8998
    -3.7425  -2.7895  -2.7442  -2.3883  -2.2807  -1.6224  -1.3247  -0.6847
    -0.5991  -0.4871   0.4292   0.6835   1.0216   1.5863

          k = 0.3125 0.4375 0.0000 (  8526 PWs)   bands (ev):

    -7.3452  -6.6820  -6.2262  -5.5965  -5.5678  -4.4921  -4.1425  -4.0173
    -3.3583  -3.0415  -2.9204  -2.3882  -2.2939  -2.2233  -1.2795  -1.2193
    -0.8432  -0.1632   0.1905   0.6849   1.1455   1.3022

          k = 0.3125-0.5000 0.0000 (  8514 PWs)   bands (ev):

    -6.8195  -6.8195  -6.1584  -6.1584  -5.0769  -5.0769  -3.6456  -3.6456
    -3.4802  -3.4802  -2.8514  -2.8514  -1.8307  -1.8307  -1.7884  -1.7884
    -0.3630  -0.3630   0.3102   0.3102   1.4558   1.4558

          k = 0.3750 0.3750 0.0000 (  8518 PWs)   bands (ev):

    -7.4155  -6.7520  -5.6660  -5.1855  -5.1855  -4.5331  -4.5331  -4.2113
    -3.4514  -3.4514  -2.9868  -2.4546  -2.2911  -2.0222  -2.0222  -1.2852
    -0.2462  -0.2462  -0.2302   0.1259   1.2366   1.8986

          k = 0.3750 0.4375 0.0000 (  8527 PWs)   bands (ev):

    -6.9594  -6.2978  -5.8433  -5.2153  -5.1876  -4.7350  -4.1716  -4.0162
    -3.7823  -3.6154  -3.0131  -2.9852  -2.6609  -1.9668  -1.9218  -1.5933
    -0.8663  -0.4946   0.1645   0.1764   1.3250   1.3270

          k = 0.3750-0.5000 0.0000 (  8516 PWs)   bands (ev):

    -6.4350  -6.4350  -5.7758  -5.7758  -4.6988  -4.6988  -4.2209  -4.2209
    -3.5610  -3.5610  -3.2460  -3.2460  -2.4960  -2.4960  -1.4828  -1.4828
    -1.0416  -1.0416   0.4852   0.4852   0.9504   0.9504

          k = 0.4375 0.4375 0.0000 (  8530 PWs)   bands (ev):

    -6.5047  -5.8451  -5.3926  -5.3926  -4.7676  -4.7390  -4.7390  -4.2891
    -3.6559  -3.6559  -3.6287  -3.3142  -2.5636  -2.2253  -2.2252  -1.5509
    -1.1086  -0.4461  -0.4461   0.4182   0.8849   1.7028

          k = 0.4375-0.5000 0.0000 (  8546 PWs)   bands (ev):

    -5.9822  -5.9822  -5.3258  -5.3258  -4.8723  -4.8723  -4.3081  -4.3081
    -4.1537  -4.1537  -3.1481  -3.1481  -2.7979  -2.7979  -1.7280  -1.7280
    -1.0003  -1.0003   0.0319   0.0319   1.1935   1.1935

          k =-0.5000-0.5000 0.0000 (  8532 PWs)   bands (ev):

    -5.4618  -5.4618  -5.4618  -5.4618  -4.8076  -4.8076  -4.8075  -4.8075
    -3.7240  -3.7240  -3.7240  -3.7240  -2.2931  -2.2931  -2.2931  -2.2931
    -0.5128  -0.5128  -0.5128  -0.5128   1.6373   1.6373

     the Fermi energy is     1.0572 ev

!    total energy              =    -149.44596643 Ry
     Harris-Foulkes estimate   =    -149.44596703 Ry
     estimated scf accuracy    <       0.00000061 Ry

     The total energy is the sum of the following terms:

     one-electron contribution =    -779.44054600 Ry
     hartree contribution      =     398.49771615 Ry
     xc contribution           =    -119.98371005 Ry
     ewald contribution        =     351.48103293 Ry
     smearing contrib. (-TS)   =      -0.00045947 Ry

     convergence has been achieved in  12 iterations

     Forces acting on atoms (Ry/au):

     atom    1 type  1   force =     0.00000000    0.00000000   -0.00270467
     atom    2 type  1   force =     0.00000000    0.00000000   -0.00270469
     atom    3 type  1   force =     0.00000000    0.00000000    0.00159243
     atom    4 type  1   force =     0.00000000    0.00000000    0.00159243
     atom    5 type  1   force =     0.00000000    0.00000000   -0.00024683
     atom    6 type  1   force =     0.00000000    0.00000000   -0.00024683
     atom    7 type  1   force =     0.00000000    0.00000000    0.00024458
     atom    8 type  1   force =     0.00000000    0.00000000    0.00024458
     atom    9 type  1   force =     0.00000000    0.00000000   -0.00158684
     atom   10 type  1   force =     0.00000000    0.00000000   -0.00158682
     atom   11 type  1   force =     0.00000000    0.00000000    0.00270133
     atom   12 type  1   force =     0.00000000    0.00000000    0.00270133

     Total force =     0.006291     Total SCF correction =     0.001405
     SCF correction compared to forces is large: reduce conv_thr to get better values


     entering subroutine stress ...

          total   stress  (Ry/bohr**3)                   (kbar)     P=   -7.98
  -0.00008230   0.00000000   0.00000000        -12.11      0.00      0.00
   0.00000000  -0.00008230   0.00000000          0.00    -12.11      0.00
   0.00000000   0.00000000   0.00000196          0.00      0.00      0.29


     number of scf cycles    =   2
     number of bfgs steps    =   1

     energy   old            =    -149.4459183368 Ry
     energy   new            =    -149.4459664346 Ry

     CASE: energy  _new < energy  _old


     WARNING: bfgs curvature condition failed, Theta= 0.911
     new trust radius        =       0.0044333198 bohr
     new conv_thr            =       0.0000000100 Ry


ATOMIC_POSITIONS (crystal)
Al       0.000000000   0.000000000  -0.000138792
Al       0.500000000   0.500000000  -0.000138797
Al       0.500000000   0.000000000   0.071515793
Al       0.000000000   0.500000000   0.071515793
Al       0.000000000   0.000000000   0.142842111
Al       0.500000000   0.500000000   0.142842123
Al       0.500000000   0.000000000   0.214300617
Al       0.000000000   0.500000000   0.214300617
Al       0.000000000   0.000000000   0.285627413
Al       0.500000000   0.500000000   0.285627416
Al       0.500000000   0.000000000   0.357281425
Al       0.000000000   0.500000000   0.357281425



     Writing output data file Al_100_3_4.save
     NEW-OLD atomic charge density approx. for the potential

     negative rho (up, down):  2.201E-08 0.000E+00

     total cpu time spent up to now is     1199.4 secs

     per-process dynamical memory:   197.4 Mb

     Self-consistent Calculation

     iteration #  1     ecut=    30.00 Ry     beta=0.30
     Davidson diagonalization with overlap
     ethr =  1.00E-06,  avg # of iterations =  2.6

     total cpu time spent up to now is     1246.0 secs

     total energy              =    -149.44603249 Ry
     Harris-Foulkes estimate   =    -149.44603959 Ry
     estimated scf accuracy    <       0.00022911 Ry

     iteration #  2     ecut=    30.00 Ry     beta=0.30
     Davidson diagonalization with overlap
     ethr =  6.36E-07,  avg # of iterations =  1.0

     total cpu time spent up to now is     1276.5 secs

     total energy              =    -149.44600679 Ry
     Harris-Foulkes estimate   =    -149.44603406 Ry
     estimated scf accuracy    <       0.00015889 Ry

     iteration #  3     ecut=    30.00 Ry     beta=0.30
     Davidson diagonalization with overlap
     ethr =  4.41E-07,  avg # of iterations =  2.4

     total cpu time spent up to now is     1310.7 secs

     total energy              =    -149.44602206 Ry
     Harris-Foulkes estimate   =    -149.44603054 Ry
     estimated scf accuracy    <       0.00008157 Ry

     iteration #  4     ecut=    30.00 Ry     beta=0.30
     Davidson diagonalization with overlap
     ethr =  2.27E-07,  avg # of iterations =  1.5

     total cpu time spent up to now is     1341.5 secs

     total energy              =    -149.44602563 Ry
     Harris-Foulkes estimate   =    -149.44602574 Ry
     estimated scf accuracy    <       0.00000268 Ry

     iteration #  5     ecut=    30.00 Ry     beta=0.30
     Davidson diagonalization with overlap
     ethr =  7.43E-09,  avg # of iterations =  3.2

     total cpu time spent up to now is     1378.3 secs

     total energy              =    -149.44602607 Ry
     Harris-Foulkes estimate   =    -149.44602610 Ry
     estimated scf accuracy    <       0.00000026 Ry

     iteration #  6     ecut=    30.00 Ry     beta=0.30
     Davidson diagonalization with overlap
     ethr =  7.14E-10,  avg # of iterations =  3.3

     total cpu time spent up to now is     1419.2 secs

     total energy              =    -149.44602640 Ry
     Harris-Foulkes estimate   =    -149.44602634 Ry
     estimated scf accuracy    <       0.00000614 Ry

     iteration #  7     ecut=    30.00 Ry     beta=0.30
     Davidson diagonalization with overlap
     ethr =  7.14E-10,  avg # of iterations =  1.0

     total cpu time spent up to now is     1449.3 secs

     total energy              =    -149.44602584 Ry
     Harris-Foulkes estimate   =    -149.44602640 Ry
     estimated scf accuracy    <       0.00000699 Ry

     iteration #  8     ecut=    30.00 Ry     beta=0.30
     Davidson diagonalization with overlap
     ethr =  7.14E-10,  avg # of iterations =  3.1

     total cpu time spent up to now is     1487.8 secs

     total energy              =    -149.44602605 Ry
     Harris-Foulkes estimate   =    -149.44602609 Ry
     estimated scf accuracy    <       0.00000017 Ry

     iteration #  9     ecut=    30.00 Ry     beta=0.30
     Davidson diagonalization with overlap
     ethr =  4.85E-10,  avg # of iterations =  2.5

     total cpu time spent up to now is     1523.0 secs

     total energy              =    -149.44602608 Ry
     Harris-Foulkes estimate   =    -149.44602609 Ry
     estimated scf accuracy    <       0.00000020 Ry

     iteration # 10     ecut=    30.00 Ry     beta=0.30
     Davidson diagonalization with overlap
     ethr =  4.85E-10,  avg # of iterations =  1.0

     total cpu time spent up to now is     1553.0 secs

     total energy              =    -149.44602608 Ry
     Harris-Foulkes estimate   =    -149.44602609 Ry
     estimated scf accuracy    <       0.00000017 Ry

     iteration # 11     ecut=    30.00 Ry     beta=0.30
     Davidson diagonalization with overlap
     ethr =  4.62E-10,  avg # of iterations =  1.0

     total cpu time spent up to now is     1583.2 secs

     total energy              =    -149.44602607 Ry
     Harris-Foulkes estimate   =    -149.44602608 Ry
     estimated scf accuracy    <       0.00000010 Ry

     iteration # 12     ecut=    30.00 Ry     beta=0.30
     Davidson diagonalization with overlap
     ethr =  2.73E-10,  avg # of iterations =  1.1

     total cpu time spent up to now is     1612.9 secs

     End of self-consistent calculation

          k = 0.0000 0.0000 0.0000 (  8589 PWs)   bands (ev):

    -9.9678  -9.2902  -8.1856  -6.7146  -4.8902  -2.6983  -1.6920  -1.6920
    -1.1634  -1.0681  -1.0681  -0.3268  -0.3268  -0.0449  -0.0449   0.3137
     0.3137   1.3269   1.3269   1.4649   1.4650   1.6789

          k = 0.0000 0.0625 0.0000 (  8573 PWs)   bands (ev):

    -9.9321  -9.2545  -8.1502  -6.6795  -4.8555  -2.6638  -2.2619  -1.6591
    -1.6264  -1.1303  -1.0351  -0.5926  -0.2915  -0.0119   0.2823   0.4018
     0.7832   0.9197   1.3599   1.5571   1.7115   2.0226

          k = 0.0000 0.1250 0.0000 (  8579 PWs)   bands (ev):

    -9.8248  -9.1477  -8.0441  -6.5743  -4.7513  -3.1653  -2.5603  -2.5199
    -1.5608  -1.4693  -1.0307  -0.9367  -0.2319  -0.0134   0.0866   0.4766
     1.3912   1.4583   1.5241   1.7052   1.8094   2.1117

          k = 0.0000 0.1875 0.0000 (  8599 PWs)   bands (ev):

    -9.6463  -8.9699  -7.8674  -6.3991  -4.5779  -4.0645  -3.4122  -2.3882
    -2.3502  -1.3967  -0.9418  -0.8652  -0.7723  -0.0015   0.2508   0.5639
     0.9422   1.6221   1.7330   1.9700   2.5736   2.9505

          k = 0.0000 0.2500 0.0000 (  8583 PWs)   bands (ev):

    -9.3967  -8.7214  -7.6204  -6.1541  -4.9153  -4.3352  -4.2585  -3.1880
    -2.1478  -1.7649  -1.1664  -0.6334  -0.5424  -0.0196   0.2255   0.4804
     0.9514   1.8512   1.9184   2.1877   2.2498   3.0393

          k = 0.0000 0.3125 0.0000 (  8545 PWs)   bands (ev):

    -9.0764  -8.4023  -7.3035  -5.8398  -5.7070  -5.0465  -4.0241  -3.9701
    -2.5373  -1.8397  -0.8712  -0.7662  -0.3359  -0.2470   0.4983   0.7758
     1.2411   1.4425   2.1464   2.2833   2.3226   2.4428

          k = 0.0000 0.3750 0.0000 (  8532 PWs)   bands (ev):

    -8.6857  -8.0133  -6.9170  -6.4361  -5.7728  -5.4566  -4.6909  -3.6450
    -3.2505  -1.4665  -1.4653  -0.5095   0.0272   0.1147   0.5527   1.0806
     1.1373   1.5932   1.6038   2.1200   2.2166   2.5070

          k = 0.0000 0.4375 0.0000 (  8540 PWs)   bands (ev):

    -8.2256  -7.5551  -7.0998  -6.4618  -6.4338  -5.3476  -5.0052  -3.9009
    -3.1984  -2.1075  -1.0260  -0.0827   0.0275   0.4547   0.5415   0.9687
     1.4068   1.4950   1.5639   1.5925   2.0512   2.3551

          k = 0.0000-0.5000 0.0000 (  8538 PWs)   bands (ev):

    -7.6967  -7.6967  -7.0283  -7.0283  -5.9382  -5.9382  -4.4861  -4.4861
    -2.6856  -2.6856  -0.5253  -0.5253   0.4102   0.4102   0.9457   0.9457
     1.0342   1.0342   1.8699   1.8699   2.0561   2.0561

          k = 0.0625 0.0625 0.0000 (  8583 PWs)   bands (ev):

    -9.8963  -9.2189  -8.1148  -6.6445  -4.8208  -2.6294  -2.2288  -2.2288
    -1.5937  -1.5937  -1.0972  -0.5519  -0.5519   0.3331   0.3332   0.8405
     0.8405   0.9869   0.9870   1.7439   2.0963   2.0963

          k = 0.0625 0.1250 0.0000 (  8586 PWs)   bands (ev):

    -9.7891  -9.1122  -8.0087  -6.5393  -4.7167  -3.1315  -2.5260  -2.4874
    -2.1280  -1.5274  -1.3956  -0.9977  -0.4554  -0.0315   0.4586   0.9276
     1.0730   1.4391   1.7602   1.8402   1.9494   2.2935

          k = 0.0625 0.1875 0.0000 (  8596 PWs)   bands (ev):

    -9.6106  -8.9344  -7.8321  -6.3641  -4.5432  -4.0301  -3.3784  -2.3540
    -2.3181  -1.9624  -1.3200  -0.9041  -0.8322  -0.2758   0.6160   0.8019
     1.1182   1.3360   1.9949   2.3081   2.6245   2.7372

          k = 0.0625 0.2500 0.0000 (  8569 PWs)   bands (ev):

    -9.3611  -8.6859  -7.5852  -6.1191  -4.8805  -4.3006  -4.2239  -3.1543
    -2.1136  -1.7737  -1.6829  -1.0905  -0.6004  -0.0468   0.0326   0.8371
     1.3400   1.5390   2.1610   2.1662   2.6062   2.6077

          k = 0.0625 0.3125 0.0000 (  8533 PWs)   bands (ev):

    -9.0408  -8.3669  -7.2683  -5.8049  -5.6722  -5.0120  -3.9894  -3.9359
    -2.5043  -1.8058  -1.4255  -0.8350  -0.6792  -0.3030   0.2495   1.0547
     1.5457   1.6309   1.7335   1.8347   2.3856   2.5557

          k = 0.0625 0.3750 0.0000 (  8531 PWs)   bands (ev):

    -8.6503  -7.9780  -6.8819  -6.4012  -5.7379  -5.4219  -4.6564  -3.6106
    -3.2166  -1.4351  -1.4321  -1.0621  -0.4157   0.0595   0.5794   0.7273
     1.0632   1.5908   1.6983   1.9380   2.1637   2.2631

          k = 0.0625 0.4375 0.0000 (  8517 PWs)   bands (ev):

    -8.1903  -7.5199  -7.0647  -6.4267  -6.3989  -5.3129  -4.9704  -3.8666
    -3.1641  -2.0742  -0.9949  -0.6381   0.0139   0.0910   0.4433   0.4856
     1.0528   1.0739   1.5239   1.9854   2.1028   2.4490

          k = 0.0625-0.5000 0.0000 (  8546 PWs)   bands (ev):

    -7.6615  -7.6615  -6.9932  -6.9932  -5.9033  -5.9033  -4.4516  -4.4516
    -2.6516  -2.6516  -0.5123  -0.5123  -0.0981  -0.0981   0.5087   0.5087
     0.9788   0.9788   1.5453   1.5453   2.4433   2.4433

          k = 0.1250 0.1250 0.0000 (  8581 PWs)   bands (ev):

    -9.6819  -9.0055  -7.9027  -6.4342  -4.6126  -3.0304  -3.0304  -2.4229
    -2.3871  -2.3871  -1.3258  -1.3258  -0.8985   0.0749   0.0750   1.5257
     1.5257   1.7805   1.7805   1.9284   2.2187   2.2187

          k = 0.1250 0.1875 0.0000 (  8562 PWs)   bands (ev):

    -9.5036  -8.8278  -7.7262  -6.2590  -4.4391  -3.9272  -3.2775  -2.8600
    -2.2873  -2.2511  -2.1376  -1.1672  -0.7843  -0.7329   0.2365   0.9620
     1.6824   1.9657   2.0272   2.3625   2.5806   2.7234

          k = 0.1250 0.2500 0.0000 (  8568 PWs)   bands (ev):

    -9.2543  -8.5795  -7.4795  -6.0143  -4.7770  -4.1968  -4.1211  -3.0546
    -2.6255  -2.0115  -1.9725  -1.6277  -0.9157  -0.5017   0.1211   0.5013
     1.6092   1.8387   2.1256   2.2806   2.4135   2.5016

          k = 0.1250 0.3125 0.0000 (  8539 PWs)   bands (ev):

    -8.9342  -8.2607  -7.1628  -5.7003  -5.5683  -4.9086  -3.8860  -3.8336
    -2.4275  -2.2914  -1.7049  -1.6746  -0.6203  -0.6185  -0.2051   0.7824
     0.8888   1.4632   1.5315   2.2825   2.5192   2.5756

          k = 0.1250 0.3750 0.0000 (  8523 PWs)   bands (ev):

    -8.5440  -7.8722  -6.7768  -6.2966  -5.6337  -5.3175  -4.5530  -3.5073
    -3.1153  -1.9464  -1.3973  -1.3341  -1.2292  -0.2543   0.1554   0.2059
     0.8217   0.8412   1.1363   1.8756   2.2739   2.6161

          k = 0.1250 0.4375 0.0000 (  8525 PWs)   bands (ev):

    -8.0844  -7.4144  -6.9596  -6.3219  -6.2942  -5.2089  -4.8665  -3.7638
    -3.0616  -1.9753  -1.5135  -0.9164  -0.8565  -0.4020   0.1069   0.2057
     0.2782   0.5857   1.2524   1.4607   1.7675   2.6533

          k = 0.1250-0.5000 0.0000 (  8522 PWs)   bands (ev):

    -7.5559  -7.5559  -6.8881  -6.8881  -5.7989  -5.7989  -4.3482  -4.3482
    -2.5501  -2.5501  -1.0253  -1.0253  -0.3590  -0.3590  -0.3574  -0.3574
     0.6927   0.6927   1.0643   1.0643   2.1053   2.1053

          k = 0.1875 0.1875 0.0000 (  8563 PWs)   bands (ev):

    -9.3255  -8.6504  -7.5499  -6.0842  -4.2661  -3.7567  -3.7567  -3.1084
    -3.1084  -2.0801  -2.0368  -2.0368  -0.6257  -0.6257  -0.5678   1.1241
     1.1242   1.5573   2.2336   2.3581   2.8326   2.8326

          k = 0.1875 0.2500 0.0000 (  8550 PWs)   bands (ev):

    -9.0764  -8.4023  -7.3035  -5.8399  -4.6045  -4.0243  -3.9510  -3.5164
    -2.9505  -2.7926  -1.8420  -1.8099  -1.4442  -0.4003  -0.3376   0.3227
     0.7805   1.3379   1.4257   2.4080   2.4463   2.6253

          k = 0.1875 0.3125 0.0000 (  8543 PWs)   bands (ev):

    -8.7568  -8.0840  -6.9872  -5.5262  -5.3949  -4.7362  -3.7140  -3.6645
    -3.2119  -2.5536  -2.2296  -1.5389  -1.4917  -0.4744  -0.0621  -0.0436
     0.0341   0.6718   1.4713   1.7088   1.9015   2.8546

          k = 0.1875 0.3750 0.0000 (  8512 PWs)   bands (ev):

    -8.3671  -7.6959  -6.6016  -6.1224  -5.4602  -5.1439  -4.3810  -3.3359
    -2.9661  -2.8109  -2.1862  -1.1870  -1.1556  -1.1250  -0.6405  -0.0315
     0.2844   0.3225   0.9706   1.0204   2.0862   2.4141

          k = 0.1875 0.4375 0.0000 (  8506 PWs)   bands (ev):

    -7.9079  -7.2386  -6.7845  -6.1473  -6.1198  -5.0358  -4.6936  -3.5934
    -2.8914  -2.3924  -1.8566  -1.6843  -1.3349  -0.6923  -0.6923  -0.6618
     0.3686   0.3940   0.7044   0.7340   1.8146   1.8237

          k = 0.1875-0.5000 0.0000 (  8526 PWs)   bands (ev):

    -7.3801  -7.3801  -6.7130  -6.7130  -5.6250  -5.6250  -4.1761  -4.1761
    -2.3826  -2.3826  -1.8904  -1.8904  -1.2297  -1.2297  -0.2833  -0.2833
    -0.0965  -0.0965   1.0750   1.0750   1.4004   1.4004

          k = 0.2500 0.2500 0.0000 (  8533 PWs)   bands (ev):

    -8.8277  -8.1546  -7.0573  -5.5958  -4.3642  -4.3641  -3.7829  -3.7120
    -3.7120  -2.6346  -2.6346  -1.6071  -1.2183  -1.2183  -0.1095  -0.0255
     0.5436   0.5436   0.6124   1.6504   2.6624   2.6624

          k = 0.2500 0.3125 0.0000 (  8542 PWs)   bands (ev):

    -8.5087  -7.8369  -6.7417  -5.2829  -5.1525  -4.4962  -4.0541  -3.4884
    -3.4735  -3.3294  -2.3372  -1.9814  -1.3228  -0.9256  -0.7648  -0.2023
    -0.1550   0.1903   0.8212   0.8990   1.9703   2.3089

          k = 0.2500 0.3750 0.0000 (  8516 PWs)   bands (ev):

    -8.1196  -7.4495  -6.3568  -5.8786  -5.2177  -4.9013  -4.1423  -3.6792
    -3.0967  -3.0182  -2.7019  -1.9535  -1.5262  -0.9439  -0.8948  -0.8512
    -0.5150   0.2073   0.5355   1.0145   1.4647   1.6316

          k = 0.2500 0.4375 0.0000 (  8530 PWs)   bands (ev):

    -7.6613  -6.9930  -6.5398  -5.9033  -5.8761  -4.7942  -4.4522  -3.3732
    -3.2102  -2.6551  -2.5806  -2.1495  -1.5609  -1.5169  -1.4876  -0.5495
    -0.3536  -0.1021   0.5754   0.8137   1.1481   1.7094

          k = 0.2500-0.5000 0.0000 (  8542 PWs)   bands (ev):

    -7.1344  -7.1344  -6.4683  -6.4683  -5.3821  -5.3821  -3.9365  -3.9365
    -2.7208  -2.7208  -2.1883  -2.1883  -2.0183  -2.0183  -1.0160  -1.0160
     0.0360   0.0361   0.3848   0.3848   1.4969   1.4969

          k = 0.3125 0.3125 0.0000 (  8538 PWs)   bands (ev):

    -8.1903  -7.5198  -6.4268  -4.9708  -4.8418  -4.8417  -4.1874  -4.1874
    -3.1655  -3.1060  -3.1059  -1.6859  -1.6859  -1.5907  -0.9629  -0.9153
     0.0837   0.0837   0.1441   0.4687   1.5697   2.2208

          k = 0.3125 0.3750 0.0000 (  8528 PWs)   bands (ev):

    -7.8021  -7.1333  -6.0427  -5.5660  -4.9078  -4.5902  -4.4614  -3.8946
    -3.7370  -2.7914  -2.7376  -2.3886  -2.2803  -1.6182  -1.3252  -0.6837
    -0.6007  -0.4834   0.4276   0.6825   1.0206   1.5845

          k = 0.3125 0.4375 0.0000 (  8526 PWs)   bands (ev):

    -7.3448  -6.6778  -6.2258  -5.5902  -5.5636  -4.4858  -4.1427  -4.0169
    -3.3539  -3.0415  -2.9199  -2.3880  -2.2876  -2.2211  -1.2817  -1.2130
    -0.8431  -0.1648   0.1904   0.6835   1.1433   1.3004

          k = 0.3125-0.5000 0.0000 (  8514 PWs)   bands (ev):

    -6.8190  -6.8190  -6.1541  -6.1541  -5.0706  -5.0706  -3.6460  -3.6460
    -3.4795  -3.4795  -2.8471  -2.8471  -1.8327  -1.8327  -1.7820  -1.7820
    -0.3631  -0.3631   0.3085   0.3085   1.4538   1.4538

          k = 0.3750 0.3750 0.0000 (  8518 PWs)   bands (ev):

    -7.4150  -6.7478  -5.6597  -5.1850  -5.1850  -4.5289  -4.5289  -4.2116
    -3.4450  -3.4449  -2.9863  -2.4545  -2.2889  -2.0225  -2.0225  -1.2788
    -0.2479  -0.2479  -0.2318   0.1257   1.2349   1.8971

          k = 0.3750 0.4375 0.0000 (  8527 PWs)   bands (ev):

    -6.9589  -6.2935  -5.8429  -5.2090  -5.1834  -4.7346  -4.1665  -4.0107
    -3.7827  -3.6148  -3.0065  -2.9809  -2.6612  -1.9688  -1.9154  -1.5937
    -0.8679  -0.4946   0.1628   0.1748   1.3233   1.3250

          k = 0.3750-0.5000 0.0000 (  8516 PWs)   bands (ev):

    -6.4345  -6.4345  -5.7716  -5.7716  -4.6925  -4.6925  -4.2205  -4.2205
    -3.5567  -3.5567  -3.2461  -3.2461  -2.4896  -2.4896  -1.4850  -1.4850
    -1.0415  -1.0415   0.4838   0.4838   0.9483   0.9483

          k = 0.4375 0.4375 0.0000 (  8530 PWs)   bands (ev):

    -6.5042  -5.8408  -5.3921  -5.3921  -4.7613  -4.7348  -4.7348  -4.2887
    -3.6495  -3.6495  -3.6243  -3.3143  -2.5573  -2.2256  -2.2255  -1.5531
    -1.1085  -0.4478  -0.4478   0.4168   0.8827   1.7014

          k = 0.4375-0.5000 0.0000 (  8546 PWs)   bands (ev):

    -5.9817  -5.9817  -5.3216  -5.3216  -4.8719  -4.8719  -4.3029  -4.3029
    -4.1483  -4.1483  -3.1416  -3.1416  -2.7982  -2.7982  -1.7284  -1.7284
    -1.0019  -1.0019   0.0302   0.0302   1.1918   1.1918

          k =-0.5000-0.5000 0.0000 (  8532 PWs)   bands (ev):

    -5.4613  -5.4613  -5.4613  -5.4613  -4.8034  -4.8034  -4.8034  -4.8034
    -3.7176  -3.7176  -3.7175  -3.7175  -2.2934  -2.2934  -2.2934  -2.2934
    -0.5146  -0.5146  -0.5145  -0.5145   1.6359   1.6359

     the Fermi energy is     1.0579 ev

!    total energy              =    -149.44602607 Ry
     Harris-Foulkes estimate   =    -149.44602608 Ry
     estimated scf accuracy    <          5.9E-09 Ry

     The total energy is the sum of the following terms:

     one-electron contribution =    -779.20830945 Ry
     hartree contribution      =     398.39104949 Ry
     xc contribution           =    -119.98151999 Ry
     ewald contribution        =     351.35321907 Ry
     smearing contrib. (-TS)   =      -0.00046519 Ry

     convergence has been achieved in  12 iterations

     Forces acting on atoms (Ry/au):

     atom    1 type  1   force =     0.00000000    0.00000000   -0.00232725
     atom    2 type  1   force =     0.00000000    0.00000000   -0.00232723
     atom    3 type  1   force =     0.00000000    0.00000000    0.00108191
     atom    4 type  1   force =     0.00000000    0.00000000    0.00108191
     atom    5 type  1   force =     0.00000000    0.00000000   -0.00004020
     atom    6 type  1   force =     0.00000000    0.00000000   -0.00004025
     atom    7 type  1   force =     0.00000000    0.00000000    0.00003898
     atom    8 type  1   force =     0.00000000    0.00000000    0.00003898
     atom    9 type  1   force =     0.00000000    0.00000000   -0.00107679
     atom   10 type  1   force =     0.00000000    0.00000000   -0.00107680
     atom   11 type  1   force =     0.00000000    0.00000000    0.00232338
     atom   12 type  1   force =     0.00000000    0.00000000    0.00232338

     Total force =     0.005128     Total SCF correction =     0.000137


     entering subroutine stress ...

          total   stress  (Ry/bohr**3)                   (kbar)     P=   -8.08
  -0.00008281   0.00000000   0.00000000        -12.18      0.00      0.00
   0.00000000  -0.00008281   0.00000000          0.00    -12.18      0.00
   0.00000000   0.00000000   0.00000080          0.00      0.00      0.12


     number of scf cycles    =   3
     number of bfgs steps    =   2

     energy   old            =    -149.4459664346 Ry
     energy   new            =    -149.4460260716 Ry

     CASE: energy  _new < energy  _old

     new trust radius        =       0.0066499797 bohr
     new conv_thr            =       0.0000000100 Ry


ATOMIC_POSITIONS (crystal)
Al       0.000000000   0.000000000  -0.000263709
Al       0.500000000   0.500000000  -0.000263715
Al       0.500000000   0.000000000   0.071581561
Al       0.000000000   0.500000000   0.071581561
Al       0.000000000   0.000000000   0.142835624
Al       0.500000000   0.500000000   0.142835638
Al       0.500000000   0.000000000   0.214307019
Al       0.000000000   0.500000000   0.214307019
Al       0.000000000   0.000000000   0.285561931
Al       0.500000000   0.500000000   0.285561934
Al       0.500000000   0.000000000   0.357406140
Al       0.000000000   0.500000000   0.357406140



     Writing output data file Al_100_3_4.save
     NEW-OLD atomic charge density approx. for the potential

     negative rho (up, down):  1.138E-07 0.000E+00

     total cpu time spent up to now is     1627.9 secs

     per-process dynamical memory:   197.4 Mb

     Self-consistent Calculation

     iteration #  1     ecut=    30.00 Ry     beta=0.30
     Davidson diagonalization with overlap
     ethr =  1.00E-06,  avg # of iterations =  2.4

     Threshold (ethr) on eigenvalues was too large:
     Diagonalizing with lowered threshold

     Davidson diagonalization with overlap
     ethr =  8.20E-08,  avg # of iterations =  2.2

     total cpu time spent up to now is     1705.0 secs

     total energy              =    -149.44609258 Ry
     Harris-Foulkes estimate   =    -149.44609459 Ry
     estimated scf accuracy    <       0.00003125 Ry

     iteration #  2     ecut=    30.00 Ry     beta=0.30
     Davidson diagonalization with overlap
     ethr =  8.68E-08,  avg # of iterations =  1.0

     total cpu time spent up to now is     1735.6 secs

     total energy              =    -149.44608806 Ry
     Harris-Foulkes estimate   =    -149.44609288 Ry
     estimated scf accuracy    <       0.00001853 Ry

     iteration #  3     ecut=    30.00 Ry     beta=0.30
     Davidson diagonalization with overlap
     ethr =  5.15E-08,  avg # of iterations =  2.4

     total cpu time spent up to now is     1770.6 secs

     total energy              =    -149.44609055 Ry
     Harris-Foulkes estimate   =    -149.44609078 Ry
     estimated scf accuracy    <       0.00000134 Ry

     iteration #  4     ecut=    30.00 Ry     beta=0.30
     Davidson diagonalization with overlap
     ethr =  3.72E-09,  avg # of iterations =  2.6

     total cpu time spent up to now is     1805.3 secs

     total energy              =    -149.44609073 Ry
     Harris-Foulkes estimate   =    -149.44609074 Ry
     estimated scf accuracy    <       0.00000016 Ry

     iteration #  5     ecut=    30.00 Ry     beta=0.30
     Davidson diagonalization with overlap
     ethr =  4.44E-10,  avg # of iterations =  3.5

     total cpu time spent up to now is     1848.6 secs

     total energy              =    -149.44609052 Ry
     Harris-Foulkes estimate   =    -149.44609086 Ry
     estimated scf accuracy    <       0.00000259 Ry

     iteration #  6     ecut=    30.00 Ry     beta=0.30
     Davidson diagonalization with overlap
     ethr =  4.44E-10,  avg # of iterations =  3.6

     total cpu time spent up to now is     1891.3 secs

     total energy              =    -149.44609071 Ry
     Harris-Foulkes estimate   =    -149.44609071 Ry
     estimated scf accuracy    <       0.00000010 Ry

     iteration #  7     ecut=    30.00 Ry     beta=0.30
     Davidson diagonalization with overlap
     ethr =  2.87E-10,  avg # of iterations =  1.0

     total cpu time spent up to now is     1921.7 secs

     total energy              =    -149.44609070 Ry
     Harris-Foulkes estimate   =    -149.44609071 Ry
     estimated scf accuracy    <       0.00000005 Ry

     iteration #  8     ecut=    30.00 Ry     beta=0.30
     Davidson diagonalization with overlap
     ethr =  1.52E-10,  avg # of iterations =  2.4

     total cpu time spent up to now is     1953.1 secs

     End of self-consistent calculation

          k = 0.0000 0.0000 0.0000 (  8589 PWs)   bands (ev):

    -9.9660  -9.2831  -8.1763  -6.7142  -4.8926  -2.7009  -1.6902  -1.6902
    -1.1662  -1.0607  -1.0607  -0.3248  -0.3248  -0.0344  -0.0344   0.3198
     0.3198   1.3275   1.3275   1.4743   1.4744   1.6752

          k = 0.0000 0.0625 0.0000 (  8573 PWs)   bands (ev):

    -9.9303  -9.2475  -8.1410  -6.6791  -4.8578  -2.6665  -2.2601  -1.6573
    -1.6192  -1.1331  -1.0276  -0.5827  -0.2898  -0.0014   0.2863   0.4063
     0.7861   0.9243   1.3604   1.5659   1.7079   2.0323

          k = 0.0000 0.1250 0.0000 (  8579 PWs)   bands (ev):

    -9.8230  -9.1407  -8.0348  -6.5738  -4.7536  -3.1635  -2.5629  -2.5127
    -1.5590  -1.4596  -1.0335  -0.9292  -0.2311  -0.0114   0.0972   0.4836
     1.3926   1.4588   1.5313   1.7025   1.8058   2.1196

          k = 0.0000 0.1875 0.0000 (  8599 PWs)   bands (ev):

    -9.6445  -8.9629  -7.8582  -6.3987  -4.5802  -4.0627  -3.4051  -2.3908
    -2.3406  -1.3949  -0.9412  -0.8679  -0.7648   0.0005   0.2614   0.5689
     0.9415   1.6226   1.7406   1.9664   2.5748   2.9489

          k = 0.0000 0.2500 0.0000 (  8583 PWs)   bands (ev):

    -9.3949  -8.7143  -7.6112  -6.1536  -4.9136  -4.3375  -4.2514  -3.1785
    -2.1504  -1.7643  -1.1646  -0.6362  -0.5349  -0.0212   0.2274   0.4910
     0.9574   1.8517   1.9231   2.1843   2.2513   3.0411

          k = 0.0000 0.3125 0.0000 (  8545 PWs)   bands (ev):

    -9.0746  -8.3953  -7.2942  -5.8393  -5.7052  -5.0395  -4.0263  -3.9606
    -2.5367  -1.8423  -0.8694  -0.7683  -0.3387  -0.2395   0.5000   0.7864
     1.2476   1.4402   2.1469   2.2851   2.3312   2.4398

          k = 0.0000 0.3750 0.0000 (  8532 PWs)   bands (ev):

    -8.6839  -8.0063  -6.9077  -6.4343  -5.7657  -5.4561  -4.6815  -3.6473
    -3.2499  -1.4687  -1.4679  -0.5078   0.0245   0.1222   0.5517   1.0809
     1.1480   1.5950   1.6102   2.1180   2.2242   2.5075

          k = 0.0000 0.4375 0.0000 (  8540 PWs)   bands (ev):

    -8.2238  -7.5481  -7.0980  -6.4525  -6.4268  -5.3383  -5.0047  -3.9003
    -3.2007  -2.1097  -1.0285  -0.0810   0.0252   0.4521   0.5490   0.9705
     1.4083   1.4925   1.5745   1.6001   2.0581   2.3563

          k = 0.0000-0.5000 0.0000 (  8538 PWs)   bands (ev):

    -7.6949  -7.6949  -7.0213  -7.0213  -5.9289  -5.9289  -4.4856  -4.4856
    -2.6878  -2.6878  -0.5278  -0.5278   0.4119   0.4119   0.9431   0.9431
     1.0417   1.0417   1.8715   1.8715   2.0668   2.0668

          k = 0.0625 0.0625 0.0000 (  8583 PWs)   bands (ev):

    -9.8945  -9.2119  -8.1056  -6.6440  -4.8231  -2.6320  -2.2270  -2.2270
    -1.5864  -1.5864  -1.1000  -0.5418  -0.5418   0.3348   0.3348   0.8421
     0.8421   0.9929   0.9929   1.7402   2.1056   2.1056

          k = 0.0625 0.1250 0.0000 (  8586 PWs)   bands (ev):

    -9.7873  -9.1051  -7.9995  -6.5388  -4.7190  -3.1297  -2.5287  -2.4802
    -2.1262  -1.5198  -1.3862  -1.0005  -0.4453  -0.0310   0.4606   0.9283
     1.0798   1.4406   1.7579   1.8366   1.9560   2.3024

          k = 0.0625 0.1875 0.0000 (  8596 PWs)   bands (ev):

    -9.6088  -8.9274  -7.8229  -6.3636  -4.5455  -4.0283  -3.3713  -2.3567
    -2.3086  -1.9607  -1.3127  -0.9032  -0.8349  -0.2660   0.6178   0.8009
     1.1189   1.3416   1.9914   2.3160   2.6260   2.7354

          k = 0.0625 0.2500 0.0000 (  8569 PWs)   bands (ev):

    -9.3593  -8.6789  -7.5759  -6.1187  -4.8788  -4.3028  -4.2168  -3.1449
    -2.1162  -1.7730  -1.6812  -1.0832  -0.6032  -0.0368   0.0305   0.8389
     1.3407   1.5456   2.1585   2.1644   2.6068   2.6161

          k = 0.0625 0.3125 0.0000 (  8533 PWs)   bands (ev):

    -9.0390  -8.3599  -7.2591  -5.8044  -5.6704  -5.0049  -3.9917  -3.9264
    -2.5037  -1.8084  -1.4237  -0.8303  -0.6787  -0.3057   0.2595   1.0558
     1.5443   1.6315   1.7351   1.8415   2.3931   2.5527

          k = 0.0625 0.3750 0.0000 (  8531 PWs)   bands (ev):

[...]

     total cpu time spent up to now is     5098.5 secs

     per-process dynamical memory:   197.4 Mb

     Self-consistent Calculation

     iteration #  1     ecut=    30.00 Ry     beta=0.30
     Davidson diagonalization with overlap
     ethr =  1.00E-06,  avg # of iterations =  2.9

     Threshold (ethr) on eigenvalues was too large:
     Diagonalizing with lowered threshold

     Davidson diagonalization with overlap
     ethr =  9.84E-08,  avg # of iterations =  2.7

     negative rho (up, down):  3.420E-08 0.000E+00

     total cpu time spent up to now is     5177.8 secs

     total energy              =    -149.44626612 Ry
     Harris-Foulkes estimate   =    -149.44626821 Ry
     estimated scf accuracy    <       0.00006269 Ry

     iteration #  2     ecut=    30.00 Ry     beta=0.30
     Davidson diagonalization with overlap
     ethr =  1.74E-07,  avg # of iterations =  1.0

     negative rho (up, down):  1.257E-06 0.000E+00

     total cpu time spent up to now is     5211.3 secs

     total energy              =    -149.44625913 Ry
     Harris-Foulkes estimate   =    -149.44626643 Ry
     estimated scf accuracy    <       0.00004200 Ry

     iteration #  3     ecut=    30.00 Ry     beta=0.30
     Davidson diagonalization with overlap
     ethr =  1.17E-07,  avg # of iterations =  2.2

     negative rho (up, down):  1.459E-07 0.000E+00

     total cpu time spent up to now is     5244.6 secs

     total energy              =    -149.44626349 Ry
     Harris-Foulkes estimate   =    -149.44626516 Ry
     estimated scf accuracy    <       0.00001611 Ry

     iteration #  4     ecut=    30.00 Ry     beta=0.30
     Davidson diagonalization with overlap
     ethr =  4.47E-08,  avg # of iterations =  1.2

     negative rho (up, down):  4.447E-08 0.000E+00

     total cpu time spent up to now is     5275.0 secs

     total energy              =    -149.44626418 Ry
     Harris-Foulkes estimate   =    -149.44626419 Ry
     estimated scf accuracy    <       0.00000125 Ry

     iteration #  5     ecut=    30.00 Ry     beta=0.30
     Davidson diagonalization with overlap
     ethr =  3.47E-09,  avg # of iterations =  3.0

     negative rho (up, down):  1.632E-08 0.000E+00

     total cpu time spent up to now is     5309.2 secs

     total energy              =    -149.44626425 Ry
     Harris-Foulkes estimate   =    -149.44626427 Ry
     estimated scf accuracy    <       0.00000023 Ry

     iteration #  6     ecut=    30.00 Ry     beta=0.30
     Davidson diagonalization with overlap
     ethr =  6.46E-10,  avg # of iterations =  2.8

     total cpu time spent up to now is     5342.2 secs

     End of self-consistent calculation

          k = 0.0000 0.0000 0.0000 (  8589 PWs)   bands (ev):

    -9.9252  -9.2367  -8.1510  -6.6979  -4.8998  -2.7209  -1.6480  -1.6480
    -1.1861  -1.0111  -1.0111  -0.2831  -0.2831  -0.0061  -0.0061   0.3662
     0.3662   1.3490   1.3490   1.5012   1.5013   1.6312

          k = 0.0000 0.0625 0.0000 (  8573 PWs)   bands (ev):

    -9.8895  -9.2010  -8.1157  -6.6628  -4.8651  -2.6865  -2.2183  -1.6150
    -1.5704  -1.1530  -0.9780  -0.5544  -0.2487   0.0269   0.3322   0.4480
     0.8114   0.9678   1.3819   1.5901   1.6640   2.0615

          k = 0.0000 0.1250 0.0000 (  8579 PWs)   bands (ev):

    -9.7823  -9.0942  -8.0095  -6.5575  -4.7608  -3.1221  -2.5828  -2.4647
    -1.5167  -1.4322  -1.0533  -0.8796  -0.1950   0.0135   0.1254   0.5306
     1.4339   1.4803   1.5604   1.6953   1.7623   2.1622

          k = 0.0000 0.1875 0.0000 (  8599 PWs)   bands (ev):

    -9.6037  -8.9164  -7.8328  -6.3823  -4.5873  -4.0214  -3.3574  -2.4106
    -2.3137  -1.3526  -0.9220  -0.8877  -0.7151   0.0414   0.2897   0.6063
     0.9436   1.6442   1.7653   1.9238   2.6155   2.9347

          k = 0.0000 0.2500 0.0000 (  8583 PWs)   bands (ev):

    -9.3541  -8.6678  -7.5858  -6.1372  -4.8724  -4.3445  -4.2041  -3.1520
    -2.1699  -1.7460  -1.1223  -0.6557  -0.4852  -0.0223   0.2687   0.5192
     0.9976   1.8733   1.9356   2.1437   2.2448   3.0840

          k = 0.0000 0.3125 0.0000 (  8545 PWs)   bands (ev):

    -9.0338  -8.3488  -7.2688  -5.8228  -5.6641  -4.9924  -4.0332  -3.9344
    -2.5189  -1.8616  -0.8270  -0.7725  -0.3580  -0.1897   0.5406   0.8147
     1.2905   1.4226   2.1684   2.3279   2.3551   2.4054

          k = 0.0000 0.3750 0.0000 (  8532 PWs)   bands (ev):

    -8.6431  -7.9597  -6.8822  -6.3933  -5.7188  -5.4395  -4.6556  -3.6540
    -3.2325  -1.4868  -1.4739  -0.4653   0.0055   0.1721   0.5551   1.0993
     1.1763   1.6377   1.6528   2.1034   2.2744   2.5291

          k = 0.0000 0.4375 0.0000 (  8540 PWs)   bands (ev):

    -8.1830  -7.5014  -7.0571  -6.4269  -6.3800  -5.3125  -4.9879  -3.8832
    -3.2071  -2.1154  -1.0469  -0.0385   0.0105   0.4334   0.5990   1.0132
     1.4446   1.4755   1.6029   1.6502   2.1025   2.3908

          k = 0.0000-0.5000 0.0000 (  8538 PWs)   bands (ev):

    -7.6540  -7.6540  -6.9745  -6.9745  -5.9033  -5.9033  -4.4686  -4.4686
    -2.6939  -2.6939  -0.5451  -0.5451   0.4545   0.4545   0.9250   0.9250
     1.0918   1.0918   1.9099   1.9099   2.0952   2.0952

          k = 0.0625 0.0625 0.0000 (  8583 PWs)   bands (ev):

    -9.8537  -9.1655  -8.0803  -6.6277  -4.8303  -2.6520  -2.1852  -2.1851
    -1.5378  -1.5377  -1.1198  -0.5139  -0.5139   0.3763   0.3763   0.8640
     0.8640   1.0390   1.0390   1.6965   2.1316   2.1316

          k = 0.0625 0.1250 0.0000 (  8586 PWs)   bands (ev):

    -9.7465  -9.0587  -7.9742  -6.5224  -4.7261  -3.0882  -2.5486  -2.4320
    -2.0845  -1.4765  -1.3535  -1.0204  -0.4169  -0.0117   0.5016   0.9486
     1.1279   1.4812   1.7514   1.7934   1.9994   2.3314

          k = 0.0625 0.1875 0.0000 (  8596 PWs)   bands (ev):

    -9.5680  -8.8809  -7.7975  -6.3472  -4.5526  -3.9870  -3.3236  -2.3764
    -2.2815  -1.9189  -1.2642  -0.8837  -0.8547  -0.2393   0.6594   0.8043
     1.1393   1.3785   1.9501   2.3414   2.6676   2.7331

          k = 0.0625 0.2500 0.0000 (  8569 PWs)   bands (ev):

    -9.3185  -8.6323  -7.5506  -6.1022  -4.8376  -4.3099  -4.1695  -3.1183
    -2.1357  -1.7446  -1.6493  -1.0344  -0.6227  -0.0097   0.0265   0.8806
     1.3608   1.5896   2.1324   2.1493   2.6323   2.6397

          k = 0.0625 0.3125 0.0000 (  8533 PWs)   bands (ev):

    -8.9982  -8.3133  -7.2336  -5.7879  -5.6294  -4.9578  -3.9986  -3.9002
    -2.4858  -1.8276  -1.3817  -0.8000  -0.6654  -0.3250   0.2866   1.0876
     1.5355   1.6516   1.7750   1.8863   2.4424   2.5152

          k = 0.0625 0.3750 0.0000 (  8531 PWs)   bands (ev):

    -8.6077  -7.9244  -6.8472  -6.3584  -5.6839  -5.4048  -4.6210  -3.6195
    -3.1985  -1.4535  -1.4420  -1.0182  -0.3606   0.0379   0.5983   0.7315
     1.1067   1.6269   1.7549   1.9495   2.1810   2.2887

          k = 0.0625 0.4375 0.0000 (  8517 PWs)   bands (ev):

    -8.1477  -7.4662  -7.0220  -6.3919  -6.3450  -5.2778  -4.9532  -3.8489
    -3.1727  -2.0820  -1.0153  -0.5946   0.0696   0.0722   0.4646   0.4864
     1.0903   1.1301   1.5050   2.0260   2.1406   2.4687

          k = 0.0625-0.5000 0.0000 (  8546 PWs)   bands (ev):

    -7.6188  -7.6188  -6.9394  -6.9394  -5.8684  -5.8684  -4.4341  -4.4341
    -2.6599  -2.6599  -0.5273  -0.5273  -0.0597  -0.0597   0.5643   0.5643
     0.9589   0.9589   1.5831   1.5831   2.4838   2.4838

          k = 0.1250 0.1250 0.0000 (  8581 PWs)   bands (ev):

    -9.6394  -8.9519  -7.8681  -6.4173  -4.6221  -2.9870  -2.9870  -2.4454
    -2.3320  -2.3320  -1.2887  -1.2887  -0.9211   0.0942   0.0942   1.5697
     1.5697   1.7829   1.7829   1.8836   2.2625   2.2625

          k = 0.1250 0.1875 0.0000 (  8562 PWs)   bands (ev):

    -9.4610  -8.7743  -7.6916  -6.2421  -4.4485  -3.8841  -3.2225  -2.8170
    -2.2734  -2.2408  -2.0925  -1.1291  -0.7667  -0.7554   0.2552   0.9569
     1.7256   1.9607   1.9978   2.4151   2.6053   2.7663

          k = 0.1250 0.2500 0.0000 (  8568 PWs)   bands (ev):

    -9.2117  -8.5259  -7.4448  -5.9974  -4.7340  -4.2060  -4.0667  -3.0184
    -2.5822  -2.0334  -1.9173  -1.6078  -0.8803  -0.5239   0.1145   0.5203
     1.6484   1.8697   2.1283   2.3369   2.3705   2.4827

          k = 0.1250 0.3125 0.0000 (  8539 PWs)   bands (ev):

    -8.8916  -8.2072  -7.1281  -5.6832  -5.5254  -4.8544  -3.8951  -3.7979
    -2.4047  -2.2520  -1.7265  -1.6190  -0.6286  -0.5824  -0.2270   0.8023
     0.9318   1.4502   1.5875   2.3195   2.5301   2.5652

          k = 0.1250 0.3750 0.0000 (  8523 PWs)   bands (ev):

    -8.5014  -7.8185  -6.7420  -6.2538  -5.5797  -5.3004  -4.5176  -3.5162
    -3.0971  -1.9028  -1.3791  -1.3549  -1.2004  -0.2183   0.1341   0.2484
     0.8034   0.8968   1.1560   1.9125   2.2550   2.6570

          k = 0.1250 0.4375 0.0000 (  8525 PWs)   bands (ev):

    -8.0417  -7.3607  -6.9169  -6.2870  -6.2403  -5.1738  -4.8492  -3.7460
    -3.0701  -1.9825  -1.4698  -0.9321  -0.8025  -0.3642   0.1111   0.2597
     0.2901   0.5662   1.2894   1.4652   1.7629   2.6728

          k = 0.1250-0.5000 0.0000 (  8522 PWs)   bands (ev):

    -7.5132  -7.5132  -6.8343  -6.8343  -5.7639  -5.7639  -4.3306  -4.3306
    -2.5582  -2.5582  -0.9824  -0.9824  -0.3793  -0.3793  -0.3026  -0.3026
     0.7294   0.7294   1.0451   1.0451   2.1238   2.1238

          k = 0.1875 0.1875 0.0000 (  8563 PWs)   bands (ev):

    -9.2829  -8.5969  -7.5153  -6.0673  -4.2754  -3.7135  -3.7135  -3.0537
    -3.0537  -2.1021  -2.0003  -2.0003  -0.6073  -0.6073  -0.5901   1.1177
     1.1177   1.5959   2.2897   2.3149   2.8700   2.8700

          k = 0.1875 0.2500 0.0000 (  8550 PWs)   bands (ev):

    -9.0338  -8.3488  -7.2688  -5.8229  -4.5615  -4.0335  -3.8963  -3.4735
    -2.9052  -2.7470  -1.8637  -1.7722  -1.4272  -0.3825  -0.3596   0.3164
     0.8233   1.3316   1.4815   2.4150   2.4309   2.6065

          k = 0.1875 0.3125 0.0000 (  8543 PWs)   bands (ev):

    -8.7142  -8.0304  -6.9525  -5.5091  -5.3520  -4.6819  -3.7229  -3.6286
    -3.1689  -2.4989  -2.2102  -1.5598  -1.4567  -0.4818  -0.0651  -0.0435
     0.0765   0.7271   1.4628   1.7455   1.8828   2.8063

          k = 0.1875 0.3750 0.0000 (  8512 PWs)   bands (ev):

    -8.3245  -7.6423  -6.5668  -6.0796  -5.4061  -5.1267  -4.3456  -3.3447
    -2.9445  -2.7709  -2.1310  -1.2032  -1.1645  -1.0893  -0.6028   0.0217
     0.3032   0.3039   0.9524   1.0572   2.0755   2.3955

          k = 0.1875 0.4375 0.0000 (  8506 PWs)   bands (ev):

    -7.8653  -7.1849  -6.7418  -6.1124  -6.0659  -5.0006  -4.6762  -3.5755
    -2.8998  -2.3490  -1.8435  -1.6511  -1.2922  -0.7129  -0.6568  -0.6074
     0.3489   0.4304   0.7146   0.7236   1.8041   1.8326

          k = 0.1875-0.5000 0.0000 (  8526 PWs)   bands (ev):

    -7.3374  -7.3374  -6.6592  -6.6592  -5.5900  -5.5900  -4.1585  -4.1585
    -2.3900  -2.3900  -1.8467  -1.8467  -1.1761  -1.1761  -0.2839  -0.2839
    -0.0809  -0.0809   1.0772   1.0772   1.3972   1.3972

          k = 0.2500 0.2500 0.0000 (  8533 PWs)   bands (ev):

    -8.7851  -8.1010  -7.0226  -5.5787  -4.3210  -4.3210  -3.7919  -3.6576
    -3.6576  -2.5985  -2.5984  -1.6281  -1.2004  -1.2004  -0.1311   0.0168
     0.5366   0.5366   0.6676   1.6869   2.6435   2.6435

          k = 0.2500 0.3125 0.0000 (  8542 PWs)   bands (ev):

    -8.4661  -7.7833  -6.7069  -5.2657  -5.1095  -4.4417  -4.0113  -3.4823
    -3.4437  -3.2839  -2.3000  -1.9648  -1.3392  -0.9082  -0.7270  -0.2089
    -0.1021   0.1711   0.8147   0.9357   1.9488   2.3279

          k = 0.2500 0.3750 0.0000 (  8516 PWs)   bands (ev):

    -8.0770  -7.3958  -6.3219  -5.8358  -5.1636  -4.8840  -4.1066  -3.6362
    -3.1052  -2.9637  -2.6830  -1.9187  -1.4836  -0.9516  -0.9156  -0.7970
    -0.4968   0.2435   0.5160   1.0054   1.4448   1.6494

          k = 0.2500 0.4375 0.0000 (  8530 PWs)   bands (ev):

    -7.6186  -6.9392  -6.4971  -5.8683  -5.8221  -4.7589  -4.4347  -3.3523
    -3.1699  -2.6628  -2.5256  -2.1059  -1.5700  -1.4815  -1.4340  -0.5520
    -0.3365  -0.0829   0.5567   0.8149   1.1454   1.6985

          k = 0.2500-0.5000 0.0000 (  8542 PWs)   bands (ev):

    -7.0917  -7.0917  -6.4144  -6.4144  -5.3470  -5.3470  -3.9188  -3.9188
    -2.6775  -2.6775  -2.1779  -2.1779  -1.9828  -1.9828  -0.9808  -0.9808
     0.0160   0.0160   0.4037   0.4037   1.4770   1.4770

          k = 0.3125 0.3125 0.0000 (  8538 PWs)   bands (ev):

    -8.1477  -7.4662  -6.3919  -4.9535  -4.7987  -4.7987  -4.1332  -4.1332
    -3.1741  -3.0701  -3.0701  -1.6682  -1.6682  -1.5481  -0.9837  -0.8611
     0.0766   0.0766   0.1803   0.4491   1.5874   2.2007

          k = 0.3125 0.3750 0.0000 (  8528 PWs)   bands (ev):

    -7.7595  -7.0796  -6.0077  -5.5232  -4.8534  -4.5728  -4.4187  -3.8502
    -3.6915  -2.7992  -2.7007  -2.3720  -2.2367  -1.5646  -1.3081  -0.6870
    -0.6074  -0.4658   0.4209   0.6833   1.0181   1.5624

          k = 0.3125 0.4375 0.0000 (  8526 PWs)   bands (ev):

    -7.3021  -6.6240  -6.1830  -5.5551  -5.5095  -4.4502  -4.1251  -3.9740
    -3.2996  -3.0229  -2.8766  -2.3790  -2.2528  -2.1843  -1.2895  -1.1780
    -0.8250  -0.1849   0.2093   0.6742   1.1230   1.2803

          k = 0.3125-0.5000 0.0000 (  8514 PWs)   bands (ev):

    -6.7763  -6.7763  -6.1002  -6.1002  -5.0353  -5.0353  -3.6253  -3.6253
    -3.4391  -3.4391  -2.7921  -2.7921  -1.8419  -1.8419  -1.7467  -1.7467
    -0.3440  -0.3440   0.2896   0.2896   1.4428   1.4428

          k = 0.3750 0.3750 0.0000 (  8518 PWs)   bands (ev):

    -7.3724  -6.6940  -5.6247  -5.1420  -5.1420  -4.4747  -4.4747  -4.1940
    -3.4093  -3.4093  -2.9430  -2.4460  -2.2517  -2.0050  -2.0049  -1.2439
    -0.2551  -0.2551  -0.2520   0.1445   1.2147   1.8767

          k = 0.3750 0.4375 0.0000 (  8527 PWs)   bands (ev):

    -6.9162  -6.2397  -5.8000  -5.1738  -5.1291  -4.6919  -4.1222  -3.9652
    -3.7622  -3.5743  -2.9699  -2.9260  -2.6446  -1.9781  -1.8801  -1.5768
    -0.8746  -0.4757   0.1558   0.1562   1.3008   1.3139

          k = 0.3750-0.5000 0.0000 (  8516 PWs)   bands (ev):

    -6.3918  -6.3918  -5.7175  -5.7175  -4.6570  -4.6570  -4.1776  -4.1776
    -3.5024  -3.5024  -3.2277  -3.2277  -2.4548  -2.4548  -1.4930  -1.4930
    -1.0236  -1.0236   0.4744   0.4744   0.9279   0.9279

          k = 0.4375 0.4375 0.0000 (  8530 PWs)   bands (ev):

    -6.4615  -5.7868  -5.3491  -5.3491  -4.7258  -4.6808  -4.6807  -4.2458
    -3.6140  -3.6140  -3.5701  -3.2960  -2.5225  -2.2081  -2.2080  -1.5610
    -1.0906  -0.4551  -0.4551   0.4073   0.8623   1.6808

          k = 0.4375-0.5000 0.0000 (  8546 PWs)   bands (ev):

    -5.9389  -5.9389  -5.2673  -5.2673  -4.8292  -4.8292  -4.2588  -4.2588
    -4.1028  -4.1028  -3.1051  -3.1051  -2.7816  -2.7816  -1.7116  -1.7116
    -1.0087  -1.0087   0.0235   0.0235   1.1692   1.1692

          k =-0.5000-0.5000 0.0000 (  8532 PWs)   bands (ev):

    -5.4183  -5.4183  -5.4183  -5.4183  -4.7493  -4.7493  -4.7493  -4.7493
    -3.6821  -3.6821  -3.6821  -3.6821  -2.2759  -2.2759  -2.2759  -2.2759
    -0.5219  -0.5219  -0.5219  -0.5219   1.6153   1.6153

     the Fermi energy is     1.0733 ev

!    total energy              =    -149.44626427 Ry
     Harris-Foulkes estimate   =    -149.44626427 Ry
     estimated scf accuracy    <          5.8E-09 Ry

     The total energy is the sum of the following terms:

     one-electron contribution =    -772.98211744 Ry
     hartree contribution      =     395.29258508 Ry
     xc contribution           =    -119.95062154 Ry
     ewald contribution        =     348.19447389 Ry
     smearing contrib. (-TS)   =      -0.00058425 Ry

     convergence has been achieved in   6 iterations

     Forces acting on atoms (Ry/au):

     atom    1 type  1   force =     0.00000000    0.00000000   -0.00024587
     atom    2 type  1   force =     0.00000000    0.00000000   -0.00024586
     atom    3 type  1   force =     0.00000000    0.00000000    0.00038391
     atom    4 type  1   force =     0.00000000    0.00000000    0.00038391
     atom    5 type  1   force =     0.00000000    0.00000000   -0.00069837
     atom    6 type  1   force =     0.00000000    0.00000000   -0.00069835
     atom    7 type  1   force =     0.00000000    0.00000000    0.00069787
     atom    8 type  1   force =     0.00000000    0.00000000    0.00069787
     atom    9 type  1   force =     0.00000000    0.00000000   -0.00038425
     atom   10 type  1   force =     0.00000000    0.00000000   -0.00038425
     atom   11 type  1   force =     0.00000000    0.00000000    0.00024669
     atom   12 type  1   force =     0.00000000    0.00000000    0.00024669

     Total force =     0.001668     Total SCF correction =     0.000095


     entering subroutine stress ...

          total   stress  (Ry/bohr**3)                   (kbar)     P=   -9.67
  -0.00008943   0.00000000   0.00000000        -13.16      0.00      0.00
   0.00000000  -0.00008943   0.00000000          0.00    -13.16      0.00
   0.00000000   0.00000000  -0.00001835          0.00      0.00     -2.70


     bfgs converged in  13 scf cycles and  12 bfgs steps
     (criteria: energy <  1.0E-04, force <  1.0E-03)

     End of BFGS Geometry Optimization

     Final energy   =    -149.4462642689 Ry
Begin final coordinates

ATOMIC_POSITIONS (crystal)
Al       0.000000000   0.000000000  -0.001234578
Al       0.500000000   0.500000000  -0.001234579
Al       0.500000000   0.000000000   0.071110814
Al       0.000000000   0.500000000   0.071110814
Al       0.000000000   0.000000000   0.142808124
Al       0.500000000   0.500000000   0.142808118
Al       0.500000000   0.000000000   0.214335075
Al       0.000000000   0.500000000   0.214335075
Al       0.000000000   0.000000000   0.286032466
Al       0.500000000   0.500000000   0.286032466
Al       0.500000000   0.000000000   0.358376674
Al       0.000000000   0.500000000   0.358376674
End final coordinates



     Writing output data file Al_100_3_4.save

     init_run     :     26.36s CPU     30.56s WALL (       1 calls)
     electrons    :   4088.70s CPU   5129.46s WALL (      13 calls)
     update_pot   :      6.82s CPU      7.14s WALL (      12 calls)
     forces       :     65.06s CPU     66.27s WALL (      13 calls)
     stress       :    116.54s CPU    119.11s WALL (      13 calls)

     Called by init_run:
     wfcinit      :     25.18s CPU     29.36s WALL (       1 calls)
     potinit      :      0.34s CPU      0.35s WALL (       1 calls)

     Called by electrons:
     c_bands      :   3368.61s CPU   4182.17s WALL (     144 calls)
     sum_band     :    530.34s CPU    707.10s WALL (     144 calls)
     v_of_rho     :     23.74s CPU     26.12s WALL (     149 calls)
     newd         :     23.13s CPU     23.51s WALL (     149 calls)
     mix_rho      :    144.80s CPU    192.10s WALL (     144 calls)

     Called by c_bands:
     init_us_2    :     34.55s CPU     43.09s WALL (   14175 calls)
     cegterg      :   3324.69s CPU   4131.05s WALL (    6480 calls)

     Called by *egterg:
     h_psi        :   2259.94s CPU   3009.49s WALL (   19659 calls)
     s_psi        :    279.02s CPU    293.02s WALL (   19659 calls)
     g_psi        :      6.89s CPU      8.64s WALL (   13134 calls)
     cdiaghg      :     20.24s CPU     24.28s WALL (   18714 calls)

     Called by h_psi:
     add_vuspsi   :    282.73s CPU    293.17s WALL (   19659 calls)

     General routines
     calbec       :    446.14s CPU    465.88s WALL (   27309 calls)
     fft          :     18.84s CPU     23.01s WALL (    2701 calls)
     ffts         :     89.13s CPU    122.84s WALL (   28356 calls)
     fftw         :   1902.96s CPU   2720.95s WALL (  799974 calls)
     interpolate  :      2.98s CPU      4.05s WALL (     293 calls)
     davcio       :      0.00s CPU      0.08s WALL (      45 calls)

     Parallel routines
     fft_scatter  :     80.06s CPU    126.15s WALL (  831031 calls)

     PWSCF        :     1h11m CPU        1h29m WALL


   This run was terminated on:  22:21:10  27May2020            

=------------------------------------------------------------------------------=
   JOB DONE.
=------------------------------------------------------------------------------=
