--------------------------------------------------------------------------
[[19395,1],0]: A high-performance Open MPI point-to-point messaging module
was unable to find any relevant network interfaces:

Module: OpenFabrics (openib)
  Host: ubuntu

Another transport will be used instead, although this may result in
lower performance.
--------------------------------------------------------------------------

     Program PWSCF v.5.1 starts on 28May2020 at 16: 4:47 

     This program is part of the open-source Quantum ESPRESSO suite
     for quantum simulation of materials; please cite
         "P. Giannozzi et al., J. Phys.:Condens. Matter 21 395502 (2009);
          URL http://www.quantum-espresso.org", 
     in publications or presentations arising from this work. More details at
     http://www.quantum-espresso.org/quote

     Parallel version (MPI), running on     1 processors
     Reading input from Al_100_surf_vac_2.pw.in

     Current dimensions of program PWSCF are:
     Max number of different atomic species (ntypx) = 10
     Max number of k-points (npk) =  40000
     Max angular momentum in pseudopotentials (lmaxx) =  3

     Subspace diagonalization in iterative solution of the eigenvalue problem:
     a serial algorithm will be used

     Found symmetry operation: I + ( -0.5000 -0.5000  0.0000)
     This is a supercell, fractional translations are disabled

     G-vector sticks info
     --------------------
     sticks:   dense  smooth     PW     G-vecs:    dense   smooth      PW
     Sum         681     681    421                54431    54431   25729



     bravais-lattice index     =            6
     lattice parameter (alat)  =       7.6050  a.u.
     unit-cell volume          =    1759.3719 (a.u.)^3
     number of atoms/cell      =            8
     number of atomic types    =            1
     number of electrons       =        24.00
     number of Kohn-Sham states=           16
     kinetic-energy cutoff     =      80.0000  Ry
     charge density cutoff     =     150.0000  Ry
     convergence threshold     =      1.0E-06
     mixing beta               =       0.3000
     number of iterations used =            8  local-TF  mixing
     Exchange-correlation      =  SLA  PW   PBE  PBE ( 1  4  3  4 0)
     nstep                     =           50


     celldm(1)=   7.605000  celldm(2)=   0.000000  celldm(3)=   4.000000
     celldm(4)=   0.000000  celldm(5)=   0.000000  celldm(6)=   0.000000

     crystal axes: (cart. coord. in units of alat)
               a(1) = (   1.000000   0.000000   0.000000 )  
               a(2) = (   0.000000   1.000000   0.000000 )  
               a(3) = (   0.000000   0.000000   4.000000 )  

     reciprocal axes: (cart. coord. in units 2 pi/alat)
               b(1) = (  1.000000  0.000000  0.000000 )  
               b(2) = (  0.000000  1.000000  0.000000 )  
               b(3) = (  0.000000  0.000000  0.250000 )  


     PseudoPot. # 1 for Al read from file:
     ./Al.pbe-n-van.UPF
     MD5 check sum: b11ded24487aef5bc42d5c7a2e22a7b6
     Pseudo is Ultrasoft + core correction, Zval =  3.0
     Generated by new atomic code, or converted to UPF format
     Using radial grid of  893 points,  2 beta functions with: 
                l(1) =   0
                l(2) =   1
     Q(r) pseudized with  8 coefficients,  rinner =    0.900   0.900   0.900


     atomic species   valence    mass     pseudopotential
        Al             3.00    26.98000     Al( 1.00)

      8 Sym. Ops. (no inversion) found



   Cartesian axes

     site n.     atom                  positions (alat units)
         1           Al  tau(   1) = (   0.0000000   0.0000000   0.0000000  )
         2           Al  tau(   2) = (   0.5000000   0.5000000   0.0000000  )
         3           Al  tau(   3) = (   0.5000000   0.0000000   0.5000000  )
         4           Al  tau(   4) = (   0.0000000   0.5000000   0.5000000  )
         5           Al  tau(   5) = (   0.0000000   0.0000000   1.0000000  )
         6           Al  tau(   6) = (   0.5000000   0.5000000   1.0000000  )
         7           Al  tau(   7) = (   0.5000000   0.0000000   1.5000000  )
         8           Al  tau(   8) = (   0.0000000   0.5000000   1.5000000  )

     number of k points=    45  Marzari-Vanderbilt smearing, width (Ry)=  0.0250
                       cart. coord. in units 2pi/alat
        k(    1) = (   0.0000000   0.0000000   0.0000000), wk =   0.0078125
        k(    2) = (   0.0000000   0.0625000   0.0000000), wk =   0.0312500
        k(    3) = (   0.0000000   0.1250000   0.0000000), wk =   0.0312500
        k(    4) = (   0.0000000   0.1875000   0.0000000), wk =   0.0312500
        k(    5) = (   0.0000000   0.2500000   0.0000000), wk =   0.0312500
        k(    6) = (   0.0000000   0.3125000   0.0000000), wk =   0.0312500
        k(    7) = (   0.0000000   0.3750000   0.0000000), wk =   0.0312500
        k(    8) = (   0.0000000   0.4375000   0.0000000), wk =   0.0312500
        k(    9) = (   0.0000000  -0.5000000   0.0000000), wk =   0.0156250
        k(   10) = (   0.0625000   0.0625000   0.0000000), wk =   0.0312500
        k(   11) = (   0.0625000   0.1250000   0.0000000), wk =   0.0625000
        k(   12) = (   0.0625000   0.1875000   0.0000000), wk =   0.0625000
        k(   13) = (   0.0625000   0.2500000   0.0000000), wk =   0.0625000
        k(   14) = (   0.0625000   0.3125000   0.0000000), wk =   0.0625000
        k(   15) = (   0.0625000   0.3750000   0.0000000), wk =   0.0625000
        k(   16) = (   0.0625000   0.4375000   0.0000000), wk =   0.0625000
        k(   17) = (   0.0625000  -0.5000000   0.0000000), wk =   0.0312500
        k(   18) = (   0.1250000   0.1250000   0.0000000), wk =   0.0312500
        k(   19) = (   0.1250000   0.1875000   0.0000000), wk =   0.0625000
        k(   20) = (   0.1250000   0.2500000   0.0000000), wk =   0.0625000
        k(   21) = (   0.1250000   0.3125000   0.0000000), wk =   0.0625000
        k(   22) = (   0.1250000   0.3750000   0.0000000), wk =   0.0625000
        k(   23) = (   0.1250000   0.4375000   0.0000000), wk =   0.0625000
        k(   24) = (   0.1250000  -0.5000000   0.0000000), wk =   0.0312500
        k(   25) = (   0.1875000   0.1875000   0.0000000), wk =   0.0312500
        k(   26) = (   0.1875000   0.2500000   0.0000000), wk =   0.0625000
        k(   27) = (   0.1875000   0.3125000   0.0000000), wk =   0.0625000
        k(   28) = (   0.1875000   0.3750000   0.0000000), wk =   0.0625000
        k(   29) = (   0.1875000   0.4375000   0.0000000), wk =   0.0625000
        k(   30) = (   0.1875000  -0.5000000   0.0000000), wk =   0.0312500
        k(   31) = (   0.2500000   0.2500000   0.0000000), wk =   0.0312500
        k(   32) = (   0.2500000   0.3125000   0.0000000), wk =   0.0625000
        k(   33) = (   0.2500000   0.3750000   0.0000000), wk =   0.0625000
        k(   34) = (   0.2500000   0.4375000   0.0000000), wk =   0.0625000
        k(   35) = (   0.2500000  -0.5000000   0.0000000), wk =   0.0312500
        k(   36) = (   0.3125000   0.3125000   0.0000000), wk =   0.0312500
        k(   37) = (   0.3125000   0.3750000   0.0000000), wk =   0.0625000
        k(   38) = (   0.3125000   0.4375000   0.0000000), wk =   0.0625000
        k(   39) = (   0.3125000  -0.5000000   0.0000000), wk =   0.0312500
        k(   40) = (   0.3750000   0.3750000   0.0000000), wk =   0.0312500
        k(   41) = (   0.3750000   0.4375000   0.0000000), wk =   0.0625000
        k(   42) = (   0.3750000  -0.5000000   0.0000000), wk =   0.0312500
        k(   43) = (   0.4375000   0.4375000   0.0000000), wk =   0.0312500
        k(   44) = (   0.4375000  -0.5000000   0.0000000), wk =   0.0312500
        k(   45) = (  -0.5000000  -0.5000000   0.0000000), wk =   0.0078125

     Dense  grid:    54431 G-vectors     FFT dimensions: (  30,  30, 120)

     Largest allocated arrays     est. size (Mb)     dimensions
        Kohn-Sham Wavefunctions         5.20 Mb     (   21312,   16)
        NL pseudopotentials            10.41 Mb     (   21312,   32)
        Each V/rho on FFT grid          1.65 Mb     (  108000)
        Each G-vector array             0.42 Mb     (   54431)
        G-vector shells                 0.01 Mb     (     846)
     Largest temporary arrays     est. size (Mb)     dimensions
        Auxiliary wavefunctions        20.81 Mb     (   21312,   64)
        Each subspace H/S matrix        0.06 Mb     (      64,   64)
        Each <psi_i|beta_j> matrix      0.01 Mb     (      32,   16)
        Arrays for rho mixing          13.18 Mb     (  108000,    8)

     Initial potential from superposition of free atoms

     starting charge   23.98028, renormalised to   24.00000
     Starting wfc are   32 randomized atomic wfcs

     total cpu time spent up to now is       25.1 secs

     per-process dynamical memory:   278.4 Mb

     Self-consistent Calculation

     iteration #  1     ecut=    80.00 Ry     beta=0.30
     Davidson diagonalization with overlap
     ethr =  1.00E-02,  avg # of iterations =  2.9

     total cpu time spent up to now is       70.8 secs

     total energy              =     -99.64232547 Ry
     Harris-Foulkes estimate   =     -99.67617803 Ry
     estimated scf accuracy    <       0.56831297 Ry

     iteration #  2     ecut=    80.00 Ry     beta=0.30
     Davidson diagonalization with overlap
     ethr =  2.37E-03,  avg # of iterations =  1.0

     negative rho (up, down):  3.421E-05 0.000E+00

     total cpu time spent up to now is       99.4 secs

     total energy              =     -99.51649359 Ry
     Harris-Foulkes estimate   =     -99.64906971 Ry
     estimated scf accuracy    <       0.42682711 Ry

     iteration #  3     ecut=    80.00 Ry     beta=0.30
     Davidson diagonalization with overlap
     ethr =  1.78E-03,  avg # of iterations =  2.3

     total cpu time spent up to now is      132.2 secs

     total energy              =     -99.57597091 Ry
     Harris-Foulkes estimate   =     -99.61290323 Ry
     estimated scf accuracy    <       0.17604898 Ry

     iteration #  4     ecut=    80.00 Ry     beta=0.30
     Davidson diagonalization with overlap
     ethr =  7.34E-04,  avg # of iterations =  2.0

     total cpu time spent up to now is      163.2 secs

     total energy              =     -99.58805250 Ry
     Harris-Foulkes estimate   =     -99.59205074 Ry
     estimated scf accuracy    <       0.01374968 Ry

     iteration #  5     ecut=    80.00 Ry     beta=0.30
     Davidson diagonalization with overlap
     ethr =  5.73E-05,  avg # of iterations =  3.6

     total cpu time spent up to now is      197.7 secs

     total energy              =     -99.58943553 Ry
     Harris-Foulkes estimate   =     -99.59011816 Ry
     estimated scf accuracy    <       0.01050634 Ry

     iteration #  6     ecut=    80.00 Ry     beta=0.30
     Davidson diagonalization with overlap
     ethr =  4.38E-05,  avg # of iterations =  2.2

     total cpu time spent up to now is      232.2 secs

     total energy              =     -99.58051548 Ry
     Harris-Foulkes estimate   =     -99.59207209 Ry
     estimated scf accuracy    <       0.05387138 Ry

     iteration #  7     ecut=    80.00 Ry     beta=0.30
     Davidson diagonalization with overlap
     ethr =  4.38E-05,  avg # of iterations =  2.9

     total cpu time spent up to now is      269.9 secs

     total energy              =     -99.58854136 Ry
     Harris-Foulkes estimate   =     -99.58912343 Ry
     estimated scf accuracy    <       0.00835704 Ry

     iteration #  8     ecut=    80.00 Ry     beta=0.30
     Davidson diagonalization with overlap
     ethr =  3.48E-05,  avg # of iterations =  1.0

     total cpu time spent up to now is      298.2 secs

     total energy              =     -99.58797500 Ry
     Harris-Foulkes estimate   =     -99.58870675 Ry
     estimated scf accuracy    <       0.00765804 Ry

     iteration #  9     ecut=    80.00 Ry     beta=0.30
     Davidson diagonalization with overlap
     ethr =  3.19E-05,  avg # of iterations =  1.2

     total cpu time spent up to now is      326.5 secs

     total energy              =     -99.58804385 Ry
     Harris-Foulkes estimate   =     -99.58824545 Ry
     estimated scf accuracy    <       0.00151101 Ry

     iteration # 10     ecut=    80.00 Ry     beta=0.30
     Davidson diagonalization with overlap
     ethr =  6.30E-06,  avg # of iterations =  2.2

     total cpu time spent up to now is      358.4 secs

     total energy              =     -99.58816274 Ry
     Harris-Foulkes estimate   =     -99.58816290 Ry
     estimated scf accuracy    <       0.00006191 Ry

     iteration # 11     ecut=    80.00 Ry     beta=0.30
     Davidson diagonalization with overlap
     ethr =  2.58E-07,  avg # of iterations =  2.8

     total cpu time spent up to now is      391.8 secs

     total energy              =     -99.58817329 Ry
     Harris-Foulkes estimate   =     -99.58817221 Ry
     estimated scf accuracy    <       0.00001289 Ry

     iteration # 12     ecut=    80.00 Ry     beta=0.30
     Davidson diagonalization with overlap
     ethr =  5.37E-08,  avg # of iterations =  2.0

     total cpu time spent up to now is      424.3 secs

     total energy              =     -99.58817431 Ry
     Harris-Foulkes estimate   =     -99.58817524 Ry
     estimated scf accuracy    <       0.00000214 Ry

     iteration # 13     ecut=    80.00 Ry     beta=0.30
     Davidson diagonalization with overlap
     ethr =  8.91E-09,  avg # of iterations =  3.0

     total cpu time spent up to now is      461.6 secs

     total energy              =     -99.58817524 Ry
     Harris-Foulkes estimate   =     -99.58817543 Ry
     estimated scf accuracy    <       0.00000460 Ry

     iteration # 14     ecut=    80.00 Ry     beta=0.30
     Davidson diagonalization with overlap
     ethr =  8.91E-09,  avg # of iterations =  1.0

     total cpu time spent up to now is      490.1 secs

     total energy              =     -99.58817416 Ry
     Harris-Foulkes estimate   =     -99.58817526 Ry
     estimated scf accuracy    <       0.00000335 Ry

     iteration # 15     ecut=    80.00 Ry     beta=0.30
     Davidson diagonalization with overlap
     ethr =  8.91E-09,  avg # of iterations =  2.1

     total cpu time spent up to now is      523.3 secs

     total energy              =     -99.58817478 Ry
     Harris-Foulkes estimate   =     -99.58817498 Ry
     estimated scf accuracy    <       0.00000158 Ry

     iteration # 16     ecut=    80.00 Ry     beta=0.30
     Davidson diagonalization with overlap
     ethr =  6.57E-09,  avg # of iterations =  2.0

     total cpu time spent up to now is      554.6 secs

     End of self-consistent calculation

          k = 0.0000 0.0000 0.0000 ( 21235 PWs)   bands (ev):

    -8.8235  -7.4255  -5.2372  -2.3678  -0.5761  -0.5761  -0.0443   0.7133
     0.7133   0.8002   0.8002   2.2399   2.2399   2.7600   2.7600   3.4544

          k = 0.0000 0.0625 0.0000 ( 21277 PWs)   bands (ev):

    -8.7878  -7.3901  -5.2021  -2.3330  -1.1395  -0.5433  -0.0111   0.1674
     0.7461   0.8603   1.4112   2.2018   2.3385   2.7926   2.8169   3.4867

          k = 0.0000 0.1250 0.0000 ( 21233 PWs)   bands (ev):

    -8.6808  -7.2839  -5.0971  -2.2289  -2.0374  -0.7059  -0.4449   0.0884
     0.8444   0.9649   1.3858   2.2598   2.6340   2.8906   3.5827   3.8265

          k = 0.0000 0.1875 0.0000 ( 21254 PWs)   bands (ev):

    -8.5025  -7.1070  -4.9222  -2.9323  -2.0556  -1.5868  -0.2808   0.2541
     0.5242   1.0083   1.1335   2.5041   3.0538   3.2628   3.7388   3.7495

          k = 0.0000 0.2500 0.0000 ( 21288 PWs)   bands (ev):

    -8.2534  -6.8598  -4.6778  -3.7804  -2.4250  -1.8135  -0.2999  -0.0512
     0.4859   1.2377   1.3603   2.5069   2.7422   3.2824   3.9430   4.1521

          k = 0.0000 0.3125 0.0000 ( 21250 PWs)   bands (ev):

    -7.9336  -6.5425  -4.5705  -4.3641  -3.2072  -1.5033  -1.0706   0.2442
     0.7832   1.5328   1.5345   1.8992   3.0214   3.3968   3.5761   3.9779

          k = 0.0000 0.3750 0.0000 ( 21262 PWs)   bands (ev):

    -7.5438  -6.1557  -5.2980  -3.9818  -3.9283  -1.7817  -1.1258   0.6053
     1.0140   1.1456   1.8934   2.0998   2.7070   3.1118   3.5841   3.9351

          k = 0.0000 0.4375 0.0000 ( 21286 PWs)   bands (ev):

    -7.0845  -5.9605  -5.7000  -4.5852  -3.5314  -2.4302  -0.6821   0.3946
     1.0321   1.5718   2.0829   2.3195   2.5175   2.5995   3.3686   3.5261

          k = 0.0000-0.5000 0.0000 ( 21214 PWs)   bands (ev):

    -6.5564  -6.5564  -5.1762  -5.1762  -3.0139  -3.0139  -0.1742  -0.1742
     1.5246   1.5246   2.0592   2.0592   2.8113   2.8113   3.0008   3.0008

          k = 0.0625 0.0625 0.0000 ( 21255 PWs)   bands (ev):

    -8.7521  -7.3547  -5.1671  -2.2983  -1.1067  -1.1067   0.0221   0.2094
     0.2094   1.4711   1.4711   2.2756   2.2756   2.8657   2.8657   3.5183

          k = 0.0625 0.1250 0.0000 ( 21240 PWs)   bands (ev):

    -8.6451  -7.2485  -5.0621  -2.1942  -2.0038  -1.0128  -0.6606   0.1215
     0.3112   1.4232   1.5796   2.3745   2.5156   2.9977   3.6110   3.8993

          k = 0.0625 0.1875 0.0000 ( 21259 PWs)   bands (ev):

    -8.4669  -7.0717  -4.8873  -2.8983  -2.0210  -1.5553  -0.8330   0.2872
     0.4668   0.5706   1.7450   2.5245   3.0799   3.3604   3.7477   3.7899

          k = 0.0625 0.2500 0.0000 ( 21265 PWs)   bands (ev):

    -8.2178  -6.8245  -4.6429  -3.7460  -2.3913  -1.7791  -0.6022  -0.2668
     0.5187   0.7122   1.9510   2.4969   2.8644   3.3210   3.5695   4.0788

          k = 0.0625 0.3125 0.0000 ( 21231 PWs)   bands (ev):

    -7.8981  -6.5073  -4.5358  -4.3293  -3.1731  -1.4691  -1.0369  -0.3036
     0.8157   1.0096   1.7195   2.3463   2.8638   3.0995   3.5597   4.0415

          k = 0.0625 0.3750 0.0000 ( 21241 PWs)   bands (ev):

    -7.5084  -6.1206  -5.2632  -3.9471  -3.8938  -1.7477  -1.0919   0.0594
     1.0649   1.1772   1.3722   2.1816   2.6841   3.2392   3.4513   3.4902

          k = 0.0625 0.4375 0.0000 ( 21278 PWs)   bands (ev):

    -7.0492  -5.9255  -5.6651  -4.5505  -3.4969  -2.3959  -0.6489   0.3821
     0.5474   1.5581   1.6009   1.7961   2.6574   2.8701   3.1041   3.8720

          k = 0.0625-0.5000 0.0000 ( 21274 PWs)   bands (ev):

    -6.5212  -6.5212  -5.1413  -5.1413  -2.9795  -2.9795  -0.1429  -0.1429
     0.9991   0.9991   2.0586   2.0586   2.3421   2.3421   3.5807   3.5807

          k = 0.1250 0.1250 0.0000 ( 21235 PWs)   bands (ev):

    -8.5382  -7.1424  -4.9572  -2.0903  -1.9036  -1.9036  -0.5633  -0.5633
     0.2208   1.5214   1.5214   2.6490   2.6490   3.6803   4.0092   4.0092

          k = 0.1250 0.1875 0.0000 ( 21238 PWs)   bands (ev):

    -8.3601  -6.9657  -4.7825  -2.7962  -1.9174  -1.7464  -1.4327  -0.3963
     0.3861   0.6594   1.6799   2.8025   3.4831   3.4864   3.7969   4.0115

          k = 0.1250 0.2500 0.0000 ( 21279 PWs)   bands (ev):

    -8.1112  -6.7187  -4.5383  -3.6430  -2.2922  -1.6759  -1.4886  -0.1967
    -0.1289   0.6169   1.8803   2.6434   2.7511   3.1183   4.0786   4.1620

          k = 0.1250 0.3125 0.0000 ( 21265 PWs)   bands (ev):

    -7.7917  -6.4018  -4.4320  -4.2250  -3.0708  -1.3665  -1.1886  -0.9360
     0.1416   0.9125   1.7823   2.0103   2.3265   3.3330   3.3821   3.9495

          k = 0.1250 0.3750 0.0000 ( 21243 PWs)   bands (ev):

    -7.4023  -6.0154  -5.1588  -3.8431  -3.7905  -1.6458  -0.9905  -0.8202
     0.5079   1.1576   1.2702   1.3219   2.6277   2.6491   3.3462   3.7347

          k = 0.1250 0.4375 0.0000 ( 21235 PWs)   bands (ev):

    -6.9434  -5.8206  -5.5602  -4.4465  -3.3933  -2.2933  -0.5504  -0.3884
     0.5405   0.6953   0.9388   1.6638   2.0550   2.7532   3.0432   4.0683

          k = 0.1250-0.5000 0.0000 ( 21262 PWs)   bands (ev):

    -6.4159  -6.4159  -5.0369  -5.0369  -2.8763  -2.8763  -0.0766  -0.0766
     0.1623   0.1623   1.4267   1.4267   2.2172   2.2172   3.5276   3.5276

          k = 0.1875 0.1875 0.0000 ( 21227 PWs)   bands (ev):

    -8.1823  -6.7892  -4.6081  -2.6271  -2.6271  -1.7449  -1.2745  -1.2745
     0.5506   0.8224   0.8224   2.7021   3.5598   3.5599   4.0337   4.0627

          k = 0.1875 0.2500 0.0000 ( 21239 PWs)   bands (ev):

    -7.9336  -6.5426  -4.3642  -3.4716  -2.4024  -2.0975  -1.5043  -1.0394
     0.0021   0.7799   1.0465   1.9031   2.8125   3.2308   3.7661   4.2712

          k = 0.1875 0.3125 0.0000 ( 21256 PWs)   bands (ev):

    -7.6146  -6.2260  -4.2593  -4.0514  -2.9026  -2.0721  -1.1963  -0.7819
    -0.7200   1.0713   1.1510   1.3087   2.1128   2.4844   3.8333   4.3931

          k = 0.1875 0.3750 0.0000 ( 21255 PWs)   bands (ev):

    -7.2256  -5.8402  -4.9849  -3.6700  -3.6188  -1.7025  -1.4763  -0.8234
    -0.3646   0.4579   1.2550   1.3987   1.8254   1.8435   3.4490   3.8421

          k = 0.1875 0.4375 0.0000 ( 21262 PWs)   bands (ev):

    -6.7673  -5.6459  -5.3855  -4.2735  -3.2208  -2.1226  -1.2644  -0.4114
    -0.1476   0.0708   0.6910   1.1239   1.8933   2.2067   2.8957   3.2377

          k = 0.1875-0.5000 0.0000 ( 21258 PWs)   bands (ev):

    -6.2404  -6.2404  -4.8630  -4.8630  -2.7046  -2.7046  -0.7634  -0.7634
     0.1369   0.1369   0.5700   0.5700   2.3637   2.3637   2.6877   2.6877

          k = 0.2500 0.2500 0.0000 ( 21291 PWs)   bands (ev):

    -7.6854  -6.2963  -4.1209  -3.2328  -3.2328  -1.8728  -1.8728  -1.2650
     0.2326   0.2326   1.0049   1.0915   2.4266   3.0237   3.0237   4.3328

          k = 0.2500 0.3125 0.0000 ( 21272 PWs)   bands (ev):

    -7.3669  -5.9804  -4.0179  -3.8086  -2.9388  -2.6378  -1.5685  -0.9602
    -0.5318   0.3342   0.5241   1.2658   1.7049   2.3047   3.2628   3.7233

          k = 0.2500 0.3750 0.0000 ( 21229 PWs)   bands (ev):

    -6.9786  -5.5952  -4.7420  -3.4280  -3.3809  -2.5381  -1.2455  -1.1892
    -0.6134  -0.3404   0.8510   0.9351   1.6615   1.6972   3.0553   3.3805

          k = 0.2500 0.4375 0.0000 ( 21285 PWs)   bands (ev):

    -6.5211  -5.4017  -5.1414  -4.0320  -2.9798  -2.0987  -1.8841  -1.0213
    -0.7565  -0.1346   0.3150   0.8526   1.4643   2.1012   2.4399   3.0567

          k = 0.2500-0.5000 0.0000 ( 21228 PWs)   bands (ev):

    -5.9951  -5.9951  -4.6199  -4.6199  -2.4647  -2.4647  -1.5912  -1.5912
    -0.2523  -0.2523   0.3537   0.3537   1.8928   1.8928   2.5680   2.5680

          k = 0.3125 0.3125 0.0000 ( 21275 PWs)   bands (ev):

    -7.0491  -5.6652  -3.7092  -3.7092  -3.4972  -2.3445  -2.3445  -0.6809
    -0.4055  -0.2328  -0.2328   0.8714   1.6316   2.5745   2.5745   2.9936

          k = 0.3125 0.3750 0.0000 ( 21275 PWs)   bands (ev):

    -6.6617  -5.2809  -4.4305  -3.3452  -3.1176  -3.0468  -1.9708  -1.1518
    -0.9356  -0.2710   0.1266   0.1856   1.9137   1.9694   2.3139   2.8760

          k = 0.3125 0.4375 0.0000 ( 21274 PWs)   bands (ev):

    -6.2052  -5.0884  -4.8283  -3.7243  -2.8750  -2.6706  -1.7897  -1.5803
    -1.5269  -0.4488   0.1502   0.5198   1.3336   1.7012   2.3704   3.0538

          k = 0.3125-0.5000 0.0000 ( 21268 PWs)   bands (ev):

    -5.6804  -5.6804  -4.3085  -4.3085  -2.3661  -2.3661  -2.1571  -2.1571
    -1.0213  -1.0213   0.5825   0.5825   1.2068   1.2068   2.7934   2.7934

          k = 0.3750 0.3750 0.0000 ( 21286 PWs)   bands (ev):

    -6.2753  -4.8979  -4.0516  -4.0516  -2.7393  -2.6840  -2.6840  -1.8562
    -0.5679  -0.5679  -0.5147   0.0822   1.6369   2.2485   2.2485   2.3044

          k = 0.3750 0.4375 0.0000 ( 21262 PWs)   bands (ev):

    -5.8201  -4.7067  -4.4470  -3.6177  -3.3209  -2.5006  -2.2939  -2.2410
    -1.2061  -1.1545  -0.1404   0.4469   1.0770   1.6501   2.6153   2.6614

          k = 0.3750-0.5000 0.0000 ( 21302 PWs)   bands (ev):

    -5.2968  -5.2968  -3.9309  -3.9309  -3.0784  -3.0784  -1.7829  -1.7829
    -1.7299  -1.7299   0.3197   0.3197   1.1352   1.1352   2.8568   2.8568

          k = 0.4375 0.4375 0.0000 ( 21312 PWs)   bands (ev):

    -5.3664  -4.2578  -4.2578  -3.9999  -3.1464  -2.8885  -2.8885  -1.8508
    -1.7976  -0.7699  -0.7699   0.2529   1.0689   2.0513   2.0513   2.7911

          k = 0.4375-0.5000 0.0000 ( 21278 PWs)   bands (ev):

    -4.8451  -4.8451  -3.7543  -3.7543  -3.4584  -3.4584  -2.3766  -2.3766
    -1.3418  -1.3418  -0.2744  -0.2744   1.5177   1.5177   2.4843   2.4843

          k =-0.5000-0.5000 0.0000 ( 21288 PWs)   bands (ev):

    -4.3267  -4.3267  -4.3267  -4.3267  -2.9569  -2.9569  -2.9569  -2.9569
    -0.8374  -0.8374  -0.8374  -0.8374   1.9854   1.9854   1.9854   1.9854

     the Fermi energy is     1.9217 ev

!    total energy              =     -99.58817491 Ry
     Harris-Foulkes estimate   =     -99.58817492 Ry
     estimated scf accuracy    <          4.4E-09 Ry

     The total energy is the sum of the following terms:

     one-electron contribution =    -135.04539551 Ry
     hartree contribution      =      74.17112087 Ry
     xc contribution           =     -79.85011210 Ry
     ewald contribution        =      41.13600798 Ry
     smearing contrib. (-TS)   =       0.00020384 Ry

     convergence has been achieved in  16 iterations

     Forces acting on atoms (Ry/au):

     atom    1 type  1   force =     0.00000000    0.00000000   -0.00503136
     atom    2 type  1   force =     0.00000000    0.00000000   -0.00503135
     atom    3 type  1   force =     0.00000000    0.00000000    0.00126540
     atom    4 type  1   force =     0.00000000    0.00000000    0.00126540
     atom    5 type  1   force =     0.00000000    0.00000000   -0.00126537
     atom    6 type  1   force =     0.00000000    0.00000000   -0.00126537
     atom    7 type  1   force =     0.00000000    0.00000000    0.00503132
     atom    8 type  1   force =     0.00000000    0.00000000    0.00503132

     Total force =     0.010376     Total SCF correction =     0.000087


     entering subroutine stress ...

          total   stress  (Ry/bohr**3)                   (kbar)     P=  -10.86
  -0.00014016   0.00000000   0.00000000        -20.62      0.00      0.00
   0.00000000  -0.00014016   0.00000000          0.00    -20.62      0.00
   0.00000000   0.00000000   0.00005884          0.00      0.00      8.66


     BFGS Geometry Optimization

     number of scf cycles    =   1
     number of bfgs steps    =   0

     energy   new            =     -99.5881749141 Ry

     new trust radius        =       0.0050313567 bohr
     new conv_thr            =       0.0000010000 Ry


ATOMIC_POSITIONS (crystal)
Al       0.000000000   0.000000000  -0.000165396
Al       0.500000000   0.500000000  -0.000165396
Al       0.500000000   0.000000000   0.125041598
Al       0.000000000   0.500000000   0.125041598
Al       0.000000000   0.000000000   0.249958403
Al       0.500000000   0.500000000   0.249958403
Al       0.500000000   0.000000000   0.375165395
Al       0.000000000   0.500000000   0.375165395



     Writing output data file Al_100_2_2.save
     NEW-OLD atomic charge density approx. for the potential

     total cpu time spent up to now is      571.8 secs

     per-process dynamical memory:   302.4 Mb

     Self-consistent Calculation

     iteration #  1     ecut=    80.00 Ry     beta=0.30
     Davidson diagonalization with overlap
     ethr =  1.00E-06,  avg # of iterations =  2.0

     Threshold (ethr) on eigenvalues was too large:
     Diagonalizing with lowered threshold

     Davidson diagonalization with overlap
     ethr =  1.17E-08,  avg # of iterations =  3.3

     total cpu time spent up to now is      648.6 secs

     total energy              =     -99.58827836 Ry
     Harris-Foulkes estimate   =     -99.58827886 Ry
     estimated scf accuracy    <       0.00000377 Ry

     iteration #  2     ecut=    80.00 Ry     beta=0.30
     Davidson diagonalization with overlap
     ethr =  1.57E-08,  avg # of iterations =  1.0

     total cpu time spent up to now is      676.9 secs

     total energy              =     -99.58827725 Ry
     Harris-Foulkes estimate   =     -99.58827841 Ry
     estimated scf accuracy    <       0.00000237 Ry

     iteration #  3     ecut=    80.00 Ry     beta=0.30
     Davidson diagonalization with overlap
     ethr =  9.86E-09,  avg # of iterations =  2.0

     total cpu time spent up to now is      712.5 secs

     End of self-consistent calculation

          k = 0.0000 0.0000 0.0000 ( 21235 PWs)   bands (ev):

    -8.8191  -7.4178  -5.2382  -2.3703  -0.5714  -0.5714  -0.0471   0.7222
     0.7222   0.8046   0.8046   2.2472   2.2472   2.7588   2.7588   3.4491

          k = 0.0000 0.0625 0.0000 ( 21277 PWs)   bands (ev):

    -8.7834  -7.3823  -5.2031  -2.3355  -1.1349  -0.5386  -0.0139   0.1758
     0.7550   0.8649   1.4158   2.2045   2.3418   2.7914   2.8246   3.4814

          k = 0.0000 0.1250 0.0000 ( 21233 PWs)   bands (ev):

    -8.6763  -7.2761  -5.0981  -2.2314  -2.0329  -0.6977  -0.4402   0.0856
     0.8533   0.9694   1.3853   2.2657   2.6393   2.8894   3.5775   3.8328

          k = 0.0000 0.1875 0.0000 ( 21254 PWs)   bands (ev):

    -8.4981  -7.0993  -4.9232  -2.9278  -2.0581  -1.5787  -0.2762   0.2513
     0.5235   1.0172   1.1379   2.5109   3.0526   3.2604   3.7338   3.7540

          k = 0.0000 0.2500 0.0000 ( 21288 PWs)   bands (ev):

    -8.2489  -6.8520  -4.6787  -3.7759  -2.4170  -1.8160  -0.3007  -0.0465
     0.4831   1.2467   1.3648   2.5044   2.7490   3.2811   3.9385   4.1568

          k = 0.0000 0.3125 0.0000 ( 21250 PWs)   bands (ev):

    -7.9292  -6.5348  -4.5660  -4.3651  -3.1993  -1.5058  -1.0714   0.2489
     0.7805   1.5368   1.5417   1.8989   3.0278   3.4015   3.5749   3.9764

          k = 0.0000 0.3750 0.0000 ( 21262 PWs)   bands (ev):

    -7.5393  -6.1480  -5.2935  -3.9827  -3.9204  -1.7826  -1.1282   0.6099
     1.0121   1.1429   1.9023   2.1037   2.7117   3.1119   3.5888   3.9338

          k = 0.0000 0.4375 0.0000 ( 21286 PWs)   bands (ev):

    -7.0800  -5.9560  -5.6922  -4.5773  -3.5323  -2.4310  -0.6845   0.3924
     1.0368   1.5691   2.0876   2.3285   2.5217   2.5971   3.3776   3.5303

          k = 0.0000-0.5000 0.0000 ( 21214 PWs)   bands (ev):

    -6.5519  -6.5519  -5.1684  -5.1684  -3.0148  -3.0148  -0.1765  -0.1765
     1.5293   1.5293   2.0567   2.0567   2.8203   2.8203   3.0051   3.0051

          k = 0.0625 0.0625 0.0000 ( 21255 PWs)   bands (ev):

    -8.7477  -7.3469  -5.1681  -2.3008  -1.1021  -1.1021   0.0193   0.2179
     0.2179   1.4757   1.4757   2.2748   2.2748   2.8729   2.8729   3.5131

          k = 0.0625 0.1250 0.0000 ( 21240 PWs)   bands (ev):

    -8.6407  -7.2407  -5.0631  -2.1967  -1.9993  -1.0081  -0.6525   0.1187
     0.3197   1.4224   1.5842   2.3735   2.5203   3.0048   3.6059   3.9069

          k = 0.0625 0.1875 0.0000 ( 21259 PWs)   bands (ev):

    -8.4625  -7.0639  -4.8883  -2.8938  -2.0235  -1.5472  -0.8284   0.2843
     0.4746   0.5705   1.7496   2.5234   3.0871   3.3581   3.7433   3.7945

          k = 0.0625 0.2500 0.0000 ( 21265 PWs)   bands (ev):

    -8.2134  -6.8167  -4.6439  -3.7415  -2.3833  -1.7816  -0.5976  -0.2676
     0.5159   0.7207   1.9554   2.4948   2.8632   3.3282   3.5732   4.0747

          k = 0.0625 0.3125 0.0000 ( 21231 PWs)   bands (ev):

    -7.8937  -6.4996  -4.5314  -4.3303  -3.1651  -1.4715  -1.0377  -0.2990
     0.8129   1.0181   1.7180   2.3498   2.8684   3.0985   3.5651   4.0414

          k = 0.0625 0.3750 0.0000 ( 21241 PWs)   bands (ev):

    -7.5040  -6.1129  -5.2587  -3.9480  -3.8859  -1.7486  -1.0943   0.0640
     1.0627   1.1745   1.3807   2.1862   2.6883   3.2374   3.4503   3.4990

          k = 0.0625 0.4375 0.0000 ( 21278 PWs)   bands (ev):

    -7.0447  -5.9211  -5.6573  -4.5426  -3.4978  -2.3968  -0.6513   0.3822
     0.5496   1.5627   1.5983   1.8044   2.6552   2.8787   3.1084   3.8711

          k = 0.0625-0.5000 0.0000 ( 21274 PWs)   bands (ev):

    -6.5168  -6.5168  -5.1335  -5.1335  -2.9804  -2.9804  -0.1452  -0.1452
     1.0037   1.0037   2.0574   2.0574   2.3495   2.3495   3.5850   3.5850

          k = 0.1250 0.1250 0.0000 ( 21235 PWs)   bands (ev):

    -8.5337  -7.1346  -4.9582  -2.0928  -1.8990  -1.8990  -0.5550  -0.5550
     0.2180   1.5206   1.5206   2.6535   2.6535   3.6759   4.0168   4.0168

          k = 0.1250 0.1875 0.0000 ( 21238 PWs)   bands (ev):

    -8.3557  -6.9579  -4.7835  -2.7917  -1.9198  -1.7417  -1.4248  -0.3880
     0.3833   0.6585   1.6790   2.8068   3.4810   3.4895   3.8015   4.0077

          k = 0.1250 0.2500 0.0000 ( 21279 PWs)   bands (ev):

    -8.1067  -6.7109  -4.5393  -3.6385  -2.2842  -1.6783  -1.4840  -0.1927
    -0.1255   0.6142   1.8793   2.6422   2.7557   3.1218   4.0873   4.1567

          k = 0.1250 0.3125 0.0000 ( 21265 PWs)   bands (ev):

    -7.7873  -6.3940  -4.4276  -4.2260  -3.0629  -1.3690  -1.1840  -0.9368
     0.1498   0.9098   1.7804   2.0149   2.3254   3.3416   3.3864   3.9483

          k = 0.1250 0.3750 0.0000 ( 21243 PWs)   bands (ev):

    -7.3978  -6.0076  -5.1543  -3.8441  -3.7826  -1.6466  -0.9929  -0.8156
     0.5162   1.1553   1.2676   1.3264   2.6268   2.6575   3.3442   3.7392

          k = 0.1250 0.4375 0.0000 ( 21235 PWs)   bands (ev):

    -6.9390  -5.8161  -5.5524  -4.4387  -3.3942  -2.2942  -0.5527  -0.3838
     0.5381   0.6998   0.9471   1.6622   2.0624   2.7510   3.0423   4.0675

          k = 0.1250-0.5000 0.0000 ( 21262 PWs)   bands (ev):

    -6.4114  -6.4114  -5.0291  -5.0291  -2.8772  -2.8772  -0.0775  -0.0775
     0.1654   0.1654   1.4347   1.4347   2.2151   2.2151   3.5267   3.5268

          k = 0.1875 0.1875 0.0000 ( 21227 PWs)   bands (ev):

    -8.1778  -6.7815  -4.6090  -2.6226  -2.6226  -1.7474  -1.2664  -1.2664
     0.5478   0.8215   0.8215   2.7067   3.5585   3.5586   4.0423   4.0666

          k = 0.1875 0.2500 0.0000 ( 21239 PWs)   bands (ev):

    -7.9292  -6.5348  -4.3652  -3.4671  -2.3977  -2.0897  -1.5067  -1.0312
     0.0012   0.7772   1.0456   1.9077   2.8105   3.2392   3.7646   4.2756

          k = 0.1875 0.3125 0.0000 ( 21256 PWs)   bands (ev):

    -7.6101  -6.2183  -4.2548  -4.0523  -2.8947  -2.0675  -1.1987  -0.7800
    -0.7147   1.0686   1.1555   1.3077   2.1108   2.4927   3.8324   4.3912

          k = 0.1875 0.3750 0.0000 ( 21255 PWs)   bands (ev):

    -7.2212  -5.8324  -4.9805  -3.6709  -3.6109  -1.6979  -1.4771  -0.8257
    -0.3565   0.4623   1.2529   1.3970   1.8327   1.8425   3.4474   3.8414

          k = 0.1875 0.4375 0.0000 ( 21262 PWs)   bands (ev):

    -6.7629  -5.6414  -5.3777  -4.2657  -3.2217  -2.1234  -1.2598  -0.4125
    -0.1444   0.0789   0.6886   1.1317   1.8912   2.2059   2.8936   3.2369

          k = 0.1875-0.5000 0.0000 ( 21258 PWs)   bands (ev):

    -6.2360  -6.2360  -4.8551  -4.8551  -2.7055  -2.7055  -0.7588  -0.7588
     0.1345   0.1345   0.5781   0.5781   2.3614   2.3614   2.6869   2.6869

          k = 0.2500 0.2500 0.0000 ( 21291 PWs)   bands (ev):

    -7.6810  -6.2886  -4.1218  -3.2283  -3.2283  -1.8648  -1.8648  -1.2675
     0.2318   0.2318   1.0022   1.0961   2.4350   3.0218   3.0218   4.3309

          k = 0.2500 0.3125 0.0000 ( 21272 PWs)   bands (ev):

    -7.3625  -5.9726  -4.0135  -3.8095  -2.9341  -2.6301  -1.5605  -0.9626
    -0.5327   0.3386   0.5232   1.2641   1.7123   2.3027   3.2613   3.7226

          k = 0.2500 0.3750 0.0000 ( 21229 PWs)   bands (ev):

    -6.9742  -5.5874  -4.7375  -3.4289  -3.3731  -2.5336  -1.2448  -1.1826
    -0.6146  -0.3371   0.8499   0.9428   1.6595   1.6951   3.0546   3.3796

          k = 0.2500 0.4375 0.0000 ( 21285 PWs)   bands (ev):

    -6.5167  -5.3972  -5.1336  -4.0242  -2.9807  -2.0942  -1.8849  -1.0167
    -0.7484  -0.1371   0.3230   0.8504   1.4634   2.0989   2.4392   3.0551

          k = 0.2500-0.5000 0.0000 ( 21228 PWs)   bands (ev):

    -5.9907  -5.9907  -4.6121  -4.6121  -2.4656  -2.4656  -1.5867  -1.5867
    -0.2442  -0.2442   0.3513   0.3513   1.8921   1.8921   2.5659   2.5659

          k = 0.3125 0.3125 0.0000 ( 21275 PWs)   bands (ev):

    -7.0447  -5.6574  -3.7047  -3.7047  -3.4981  -2.3365  -2.3365  -0.6821
    -0.4021  -0.2337  -0.2337   0.8791   1.6296   2.5726   2.5726   2.9929

          k = 0.3125 0.3750 0.0000 ( 21275 PWs)   bands (ev):

    -6.6572  -5.2731  -4.4260  -3.3405  -3.1185  -3.0391  -1.9628  -1.1472
    -0.9365  -0.2735   0.1257   0.1937   1.9116   1.9671   2.3132   2.8744

          k = 0.3125 0.4375 0.0000 ( 21274 PWs)   bands (ev):

    -6.2007  -5.0839  -4.8205  -3.7164  -2.8705  -2.6715  -1.7852  -1.5805
    -1.5196  -0.4408   0.1478   0.5187   1.3316   1.7004   2.3682   3.0528

          k = 0.3125-0.5000 0.0000 ( 21268 PWs)   bands (ev):

    -5.6760  -5.6760  -4.3006  -4.3006  -2.3616  -2.3616  -2.1579  -2.1579
    -1.0133  -1.0133   0.5802   0.5802   1.2059   1.2059   2.7917   2.7917

          k = 0.3750 0.3750 0.0000 ( 21286 PWs)   bands (ev):

    -6.2708  -4.8901  -4.0471  -4.0471  -2.7402  -2.6760  -2.6760  -1.8517
    -0.5688  -0.5688  -0.5067   0.0798   1.6361   2.2465   2.2465   2.3022

          k = 0.3750 0.4375 0.0000 ( 21262 PWs)   bands (ev):

    -5.8156  -4.7022  -4.4391  -3.6130  -3.3132  -2.4961  -2.2948  -2.2330
    -1.2070  -1.1465  -0.1413   0.4447   1.0760   1.6480   2.6138   2.6598

          k = 0.3750-0.5000 0.0000 ( 21302 PWs)   bands (ev):

    -5.2924  -5.2924  -3.9231  -3.9231  -3.0739  -3.0739  -1.7835  -1.7835
    -1.7222  -1.7222   0.3187   0.3187   1.1332   1.1332   2.8559   2.8559

          k = 0.4375 0.4375 0.0000 ( 21312 PWs)   bands (ev):

    -5.3619  -4.2533  -4.2533  -3.9921  -3.1418  -2.8806  -2.8806  -1.8515
    -1.7898  -0.7708  -0.7708   0.2518   1.0669   2.0494   2.0494   2.7901

          k = 0.4375-0.5000 0.0000 ( 21278 PWs)   bands (ev):

    -4.8406  -4.8406  -3.7496  -3.7496  -3.4507  -3.4507  -2.3687  -2.3687
    -1.3426  -1.3426  -0.2753  -0.2753   1.5156   1.5156   2.4828   2.4828

          k =-0.5000-0.5000 0.0000 ( 21288 PWs)   bands (ev):

    -4.3222  -4.3222  -4.3222  -4.3222  -2.9490  -2.9490  -2.9490  -2.9490
    -0.8383  -0.8383  -0.8383  -0.8383   1.9834   1.9834   1.9834   1.9834

     the Fermi energy is     1.9228 ev

!    total energy              =     -99.58827774 Ry
     Harris-Foulkes estimate   =     -99.58827788 Ry
     estimated scf accuracy    <       0.00000017 Ry

     The total energy is the sum of the following terms:

     one-electron contribution =    -134.84654066 Ry
     hartree contribution      =      74.07466276 Ry
     xc contribution           =     -79.84755727 Ry
     ewald contribution        =      41.03095100 Ry
     smearing contrib. (-TS)   =       0.00020643 Ry

     convergence has been achieved in   3 iterations

     Forces acting on atoms (Ry/au):

     atom    1 type  1   force =     0.00000000    0.00000000   -0.00465794
     atom    2 type  1   force =     0.00000000    0.00000000   -0.00465792
     atom    3 type  1   force =     0.00000000    0.00000000    0.00079747
     atom    4 type  1   force =     0.00000000    0.00000000    0.00079747
     atom    5 type  1   force =     0.00000000    0.00000000   -0.00079741
     atom    6 type  1   force =     0.00000000    0.00000000   -0.00079741
     atom    7 type  1   force =     0.00000000    0.00000000    0.00465787
     atom    8 type  1   force =     0.00000000    0.00000000    0.00465787

     Total force =     0.009451     Total SCF correction =     0.000474


     entering subroutine stress ...

          total   stress  (Ry/bohr**3)                   (kbar)     P=  -11.09
  -0.00014128   0.00000000   0.00000000        -20.78      0.00      0.00
   0.00000000  -0.00014128   0.00000000          0.00    -20.78      0.00
   0.00000000   0.00000000   0.00005646          0.00      0.00      8.31


     number of scf cycles    =   2
     number of bfgs steps    =   1

     energy   old            =     -99.5881749141 Ry
     energy   new            =     -99.5882777393 Ry

     CASE: energy  _new < energy  _old


     WARNING: bfgs curvature condition failed, Theta= 0.881
     new trust radius        =       0.0055344923 bohr
     new conv_thr            =       0.0000000103 Ry


ATOMIC_POSITIONS (crystal)
Al       0.000000000   0.000000000  -0.000347332
Al       0.500000000   0.500000000  -0.000347331
Al       0.500000000   0.000000000   0.125076203
Al       0.000000000   0.500000000   0.125076203
Al       0.000000000   0.000000000   0.249923800
Al       0.500000000   0.500000000   0.249923800
Al       0.500000000   0.000000000   0.375347329
Al       0.000000000   0.500000000   0.375347329



     Writing output data file Al_100_2_2.save
     NEW-OLD atomic charge density approx. for the potential

     total cpu time spent up to now is      728.5 secs

     per-process dynamical memory:   302.4 Mb

     Self-consistent Calculation

     iteration #  1     ecut=    80.00 Ry     beta=0.30
     Davidson diagonalization with overlap
     ethr =  1.00E-06,  avg # of iterations =  2.0

     Threshold (ethr) on eigenvalues was too large:
     Diagonalizing with lowered threshold

     Davidson diagonalization with overlap
     ethr =  5.30E-08,  avg # of iterations =  2.3

     total cpu time spent up to now is      799.9 secs

     total energy              =     -99.58838121 Ry
     Harris-Foulkes estimate   =     -99.58838259 Ry
     estimated scf accuracy    <       0.00001670 Ry

     iteration #  2     ecut=    80.00 Ry     beta=0.30
     Davidson diagonalization with overlap
     ethr =  6.96E-08,  avg # of iterations =  1.0

     total cpu time spent up to now is      827.7 secs

     total energy              =     -99.58837721 Ry
     Harris-Foulkes estimate   =     -99.58838133 Ry
     estimated scf accuracy    <       0.00001128 Ry

     iteration #  3     ecut=    80.00 Ry     beta=0.30
     Davidson diagonalization with overlap
     ethr =  4.70E-08,  avg # of iterations =  2.0

     total cpu time spent up to now is      862.1 secs

     total energy              =     -99.58837923 Ry
     Harris-Foulkes estimate   =     -99.58838011 Ry
     estimated scf accuracy    <       0.00000315 Ry

     iteration #  4     ecut=    80.00 Ry     beta=0.30
     Davidson diagonalization with overlap
     ethr =  1.31E-08,  avg # of iterations =  2.0

     total cpu time spent up to now is      894.4 secs

     total energy              =     -99.58837967 Ry
     Harris-Foulkes estimate   =     -99.58837970 Ry
     estimated scf accuracy    <       0.00000013 Ry

     iteration #  5     ecut=    80.00 Ry     beta=0.30
     Davidson diagonalization with overlap
     ethr =  5.46E-10,  avg # of iterations =  2.6

     total cpu time spent up to now is      928.7 secs

     total energy              =     -99.58837971 Ry
     Harris-Foulkes estimate   =     -99.58837970 Ry
     estimated scf accuracy    <       0.00000018 Ry

     iteration #  6     ecut=    80.00 Ry     beta=0.30
     Davidson diagonalization with overlap
     ethr =  5.46E-10,  avg # of iterations =  1.0

     total cpu time spent up to now is      956.7 secs

     total energy              =     -99.58837970 Ry
     Harris-Foulkes estimate   =     -99.58837971 Ry
     estimated scf accuracy    <       0.00000022 Ry

     iteration #  7     ecut=    80.00 Ry     beta=0.30
     Davidson diagonalization with overlap
     ethr =  5.46E-10,  avg # of iterations =  1.0

     total cpu time spent up to now is      984.3 secs

     total energy              =     -99.58837971 Ry
     Harris-Foulkes estimate   =     -99.58837971 Ry
     estimated scf accuracy    <       0.00000005 Ry

     iteration #  8     ecut=    80.00 Ry     beta=0.30
     Davidson diagonalization with overlap
     ethr =  2.08E-10,  avg # of iterations =  2.4

     total cpu time spent up to now is     1017.8 secs

     total energy              =     -99.58837972 Ry
     Harris-Foulkes estimate   =     -99.58837972 Ry
     estimated scf accuracy    <       0.00000002 Ry

     iteration #  9     ecut=    80.00 Ry     beta=0.30
     Davidson diagonalization with overlap
     ethr =  8.42E-11,  avg # of iterations =  1.0

     total cpu time spent up to now is     1045.1 secs

     End of self-consistent calculation

          k = 0.0000 0.0000 0.0000 ( 21235 PWs)   bands (ev):

    -8.8136  -7.4089  -5.2391  -2.3732  -0.5658  -0.5658  -0.0504   0.7322
     0.7322   0.8101   0.8101   2.2556   2.2556   2.7576   2.7576   3.4430

          k = 0.0000 0.0625 0.0000 ( 21277 PWs)   bands (ev):

    -8.7780  -7.3735  -5.2041  -2.3385  -1.1293  -0.5330  -0.0172   0.1852
     0.7649   0.8704   1.4215   2.2074   2.3461   2.7903   2.8334   3.4753

          k = 0.0000 0.1250 0.0000 ( 21233 PWs)   bands (ev):

    -8.6709  -7.2673  -5.0990  -2.2343  -2.0274  -0.6884  -0.4346   0.0823
     0.8633   0.9748   1.3848   2.2727   2.6455   2.8882   3.5715   3.8398

          k = 0.0000 0.1875 0.0000 ( 21254 PWs)   bands (ev):

    -8.4927  -7.0904  -4.9241  -2.9223  -2.0610  -1.5695  -0.2705   0.2481
     0.5228   1.0272   1.1434   2.5188   3.0515   3.2576   3.7280   3.7596

          k = 0.0000 0.2500 0.0000 ( 21288 PWs)   bands (ev):

    -8.2435  -6.8432  -4.6797  -3.7704  -2.4079  -1.8189  -0.3014  -0.0408
     0.4799   1.2566   1.3703   2.5015   2.7569   3.2800   3.9332   4.1625

          k = 0.0000 0.3125 0.0000 ( 21250 PWs)   bands (ev):

    -7.9238  -6.5259  -4.5605  -4.3660  -3.1903  -1.5086  -1.0722   0.2545
     0.7773   1.5396   1.5517   1.8987   3.0352   3.4072   3.5737   3.9747

          k = 0.0000 0.3750 0.0000 ( 21262 PWs)   bands (ev):

    -7.5339  -6.1391  -5.2881  -3.9836  -3.9114  -1.7834  -1.1311   0.6156
     1.0098   1.1397   1.9123   2.1085   2.7174   3.1119   3.5943   3.9326

          k = 0.0000 0.4375 0.0000 ( 21286 PWs)   bands (ev):

    -7.0746  -5.9506  -5.6834  -4.5684  -3.5332  -2.4319  -0.6873   0.3897
     1.0424   1.5660   2.0934   2.3386   2.5268   2.5944   3.3877   3.5355

          k = 0.0000-0.5000 0.0000 ( 21214 PWs)   bands (ev):

    -6.5465  -6.5465  -5.1595  -5.1595  -3.0156  -3.0156  -0.1793  -0.1793
     1.5350   1.5350   2.0537   2.0537   2.8304   2.8304   3.0104   3.0104

          k = 0.0625 0.0625 0.0000 ( 21255 PWs)   bands (ev):

    -8.7423  -7.3381  -5.1691  -2.3038  -1.0965  -1.0965   0.0160   0.2274
     0.2274   1.4813   1.4813   2.2741   2.2741   2.8813   2.8813   3.5070

          k = 0.0625 0.1250 0.0000 ( 21240 PWs)   bands (ev):

    -8.6352  -7.2319  -5.0641  -2.1997  -1.9938  -1.0024  -0.6433   0.1154
     0.3293   1.4217   1.5897   2.3726   2.5261   3.0130   3.6000   3.9154

          k = 0.0625 0.1875 0.0000 ( 21259 PWs)   bands (ev):

    -8.4571  -7.0551  -4.8892  -2.8883  -2.0264  -1.5381  -0.8228   0.2811
     0.4833   0.5707   1.7551   2.5223   3.0954   3.3553   3.7382   3.8001

          k = 0.0625 0.2500 0.0000 ( 21265 PWs)   bands (ev):

    -8.2079  -6.8079  -4.6448  -3.7360  -2.3743  -1.7845  -0.5920  -0.2683
     0.5127   0.7302   1.9607   2.4924   2.8620   3.3364   3.5776   4.0702

          k = 0.0625 0.3125 0.0000 ( 21231 PWs)   bands (ev):

    -7.8883  -6.4907  -4.5259  -4.3312  -3.1561  -1.4744  -1.0384  -0.2934
     0.8097   1.0276   1.7163   2.3542   2.8739   3.0976   3.5712   4.0410

          k = 0.0625 0.3750 0.0000 ( 21241 PWs)   bands (ev):

    -7.4985  -6.1040  -5.2533  -3.9489  -3.8769  -1.7494  -1.0971   0.0696
     1.0601   1.1714   1.3903   2.1918   2.6935   3.2352   3.4494   3.5088

          k = 0.0625 0.4375 0.0000 ( 21278 PWs)   bands (ev):

    -7.0393  -5.9156  -5.6484  -4.5337  -3.4987  -2.3976  -0.6541   0.3823
     0.5524   1.5683   1.5952   1.8139   2.6526   2.8885   3.1137   3.8702

          k = 0.0625-0.5000 0.0000 ( 21274 PWs)   bands (ev):

    -6.5114  -6.5114  -5.1246  -5.1246  -2.9812  -2.9812  -0.1479  -0.1479
     1.0092   1.0092   2.0558   2.0558   2.3578   2.3578   3.5904   3.5904

          k = 0.1250 0.1250 0.0000 ( 21235 PWs)   bands (ev):

    -8.5283  -7.1258  -4.9591  -2.0957  -1.8935  -1.8935  -0.5457  -0.5457
     0.2147   1.5198   1.5198   2.6591   2.6591   3.6708   4.0255   4.0255

          k = 0.1250 0.1875 0.0000 ( 21238 PWs)   bands (ev):

    -8.3502  -6.9491  -4.7844  -2.7862  -1.9228  -1.7360  -1.4157  -0.3787
     0.3800   0.6577   1.6782   2.8122   3.4784   3.4931   3.8072   4.0035

          k = 0.1250 0.2500 0.0000 ( 21279 PWs)   bands (ev):

    -8.1013  -6.7021  -4.5402  -3.6330  -2.2751  -1.6812  -1.4784  -0.1889
    -0.1209   0.6110   1.8784   2.6408   2.7612   3.1261   4.0969   4.1506

          k = 0.1250 0.3125 0.0000 ( 21265 PWs)   bands (ev):

    -7.7819  -6.3852  -4.4221  -4.2269  -3.0538  -1.3719  -1.1785  -0.9375
     0.1590   0.9067   1.7780   2.0205   2.3244   3.3512   3.3917   3.9467

          k = 0.1250 0.3750 0.0000 ( 21243 PWs)   bands (ev):

    -7.3924  -5.9987  -5.1488  -3.8450  -3.7736  -1.6474  -0.9957  -0.8101
     0.5255   1.1526   1.2646   1.3320   2.6260   2.6670   3.3417   3.7446

          k = 0.1250 0.4375 0.0000 ( 21235 PWs)   bands (ev):

    -6.9336  -5.8107  -5.5435  -4.4297  -3.3951  -2.2950  -0.5554  -0.3782
     0.5353   0.7052   0.9564   1.6603   2.0708   2.7483   3.0415   4.0667

          k = 0.1250-0.5000 0.0000 ( 21262 PWs)   bands (ev):

    -6.4060  -6.4060  -5.0201  -5.0201  -2.8781  -2.8781  -0.0786  -0.0786
     0.1692   0.1692   1.4437   1.4437   2.2126   2.2126   3.5260   3.5260

          k = 0.1875 0.1875 0.0000 ( 21227 PWs)   bands (ev):

    -8.1724  -6.7726  -4.6100  -2.6171  -2.6171  -1.7503  -1.2572  -1.2572
     0.5446   0.8207   0.8207   2.7121   3.5570   3.5570   4.0519   4.0713

          k = 0.1875 0.2500 0.0000 ( 21239 PWs)   bands (ev):

    -7.9238  -6.5260  -4.3661  -3.4616  -2.3920  -2.0808  -1.5096  -1.0220
     0.0003   0.7740   1.0448   1.9132   2.8082   3.2488   3.7626   4.2809

          k = 0.1875 0.3125 0.0000 ( 21256 PWs)   bands (ev):

    -7.6047  -6.2094  -4.2493  -4.0532  -2.8857  -2.0620  -1.2016  -0.7783
    -0.7080   1.0656   1.1611   1.3066   2.1084   2.5022   3.8311   4.3890

          k = 0.1875 0.3750 0.0000 ( 21255 PWs)   bands (ev):

    -7.2158  -5.8235  -4.9750  -3.6718  -3.6019  -1.6924  -1.4779  -0.8284
    -0.3474   0.4678   1.2504   1.3950   1.8411   1.8415   3.4454   3.8407

          k = 0.1875 0.4375 0.0000 ( 21262 PWs)   bands (ev):

    -6.7574  -5.6360  -5.3688  -4.2567  -3.2226  -2.1243  -1.2543  -0.4139
    -0.1403   0.0881   0.6858   1.1405   1.8888   2.2051   2.8911   3.2362

          k = 0.1875-0.5000 0.0000 ( 21258 PWs)   bands (ev):

    -6.2305  -6.2305  -4.8462  -4.8462  -2.7064  -2.7064  -0.7532  -0.7532
     0.1316   0.1316   0.5873   0.5873   2.3587   2.3587   2.6862   2.6862

          k = 0.2500 0.2500 0.0000 ( 21291 PWs)   bands (ev):

    -7.6756  -6.2797  -4.1227  -3.2228  -3.2228  -1.8557  -1.8557  -1.2703
     0.2309   0.2309   0.9991   1.1016   2.4444   3.0195   3.0195   4.3287

          k = 0.2500 0.3125 0.0000 ( 21272 PWs)   bands (ev):

    -7.3571  -5.9637  -4.0080  -3.8105  -2.9284  -2.6212  -1.5513  -0.9653
    -0.5335   0.3440   0.5223   1.2621   1.7206   2.3002   3.2593   3.7219

          k = 0.2500 0.3750 0.0000 ( 21229 PWs)   bands (ev):

    -6.9688  -5.5785  -4.7321  -3.4298  -3.3641  -2.5280  -1.2444  -1.1747
    -0.6161  -0.3329   0.8489   0.9516   1.6571   1.6927   3.0539   3.3783

          k = 0.2500 0.4375 0.0000 ( 21285 PWs)   bands (ev):

    -6.5112  -5.3918  -5.1247  -4.0152  -2.9815  -2.0887  -1.8857  -1.0111
    -0.7393  -0.1400   0.3321   0.8479   1.4624   2.0961   2.4385   3.0530

          k = 0.2500-0.5000 0.0000 ( 21228 PWs)   bands (ev):

    -5.9853  -5.9853  -4.6032  -4.6032  -2.4664  -2.4664  -1.5811  -1.5811
    -0.2351  -0.2351   0.3484   0.3484   1.8913   1.8913   2.5633   2.5633

          k = 0.3125 0.3125 0.0000 ( 21275 PWs)   bands (ev):

    -7.0393  -5.6485  -3.6992  -3.6992  -3.4990  -2.3274  -2.3274  -0.6837
    -0.3979  -0.2345  -0.2345   0.8878   1.6272   2.5702   2.5702   2.9922

          k = 0.3125 0.3750 0.0000 ( 21275 PWs)   bands (ev):

    -6.6518  -5.2642  -4.4206  -3.3348  -3.1194  -3.0303  -1.9537  -1.1417
    -0.9373  -0.2764   0.1248   0.2028   1.9091   1.9644   2.3125   2.8725

          k = 0.3125 0.4375 0.0000 ( 21274 PWs)   bands (ev):

    -6.1953  -5.0785  -4.8116  -3.7075  -2.8650  -2.6723  -1.7797  -1.5808
    -1.5110  -0.4317   0.1449   0.5177   1.3292   1.6997   2.3657   3.0515

          k = 0.3125-0.5000 0.0000 ( 21268 PWs)   bands (ev):

    -5.6705  -5.6705  -4.2917  -4.2917  -2.3561  -2.3561  -2.1588  -2.1588
    -1.0042  -1.0042   0.5777   0.5777   1.2049   1.2049   2.7897   2.7897

          k = 0.3750 0.3750 0.0000 ( 21286 PWs)   bands (ev):

    -6.2654  -4.8811  -4.0416  -4.0416  -2.7411  -2.6670  -2.6670  -1.8461
    -0.5696  -0.5696  -0.4976   0.0769   1.6354   2.2442   2.2442   2.2997

          k = 0.3750 0.4375 0.0000 ( 21262 PWs)   bands (ev):

    -5.8102  -4.6968  -4.4302  -3.6073  -3.3045  -2.4905  -2.2956  -2.2240
    -1.2079  -1.1374  -0.1422   0.4421   1.0751   1.6455   2.6118   2.6577

          k = 0.3750-0.5000 0.0000 ( 21302 PWs)   bands (ev):

    -5.2869  -5.2869  -3.9142  -3.9142  -3.0683  -3.0683  -1.7842  -1.7842
    -1.7133  -1.7133   0.3176   0.3176   1.1308   1.1308   2.8546   2.8546

          k = 0.4375 0.4375 0.0000 ( 21312 PWs)   bands (ev):

    -5.3565  -4.2479  -4.2479  -3.9832  -3.1363  -2.8716  -2.8716  -1.8523
    -1.7808  -0.7716  -0.7716   0.2507   1.0644   2.0470   2.0470   2.7888

          k = 0.4375-0.5000 0.0000 ( 21278 PWs)   bands (ev):

    -4.8352  -4.8352  -3.7439  -3.7439  -3.4420  -3.4420  -2.3596  -2.3596
    -1.3435  -1.3435  -0.2762  -0.2762   1.5130   1.5130   2.4808   2.4808

          k =-0.5000-0.5000 0.0000 ( 21288 PWs)   bands (ev):

    -4.3167  -4.3167  -4.3167  -4.3167  -2.9400  -2.9400  -2.9400  -2.9400
    -0.8391  -0.8391  -0.8391  -0.8391   1.9811   1.9811   1.9811   1.9811

     the Fermi energy is     1.9240 ev

!    total energy              =     -99.58837973 Ry
     Harris-Foulkes estimate   =     -99.58837972 Ry
     estimated scf accuracy    <          4.5E-09 Ry

     The total energy is the sum of the following terms:

     one-electron contribution =    -134.61579210 Ry
     hartree contribution      =      73.95897979 Ry
     xc contribution           =     -79.84460530 Ry
     ewald contribution        =      40.91282804 Ry
     smearing contrib. (-TS)   =       0.00020984 Ry

     convergence has been achieved in   9 iterations

     Forces acting on atoms (Ry/au):

     atom    1 type  1   force =     0.00000000    0.00000000   -0.00430234
     atom    2 type  1   force =     0.00000000    0.00000000   -0.00430234
     atom    3 type  1   force =     0.00000000    0.00000000    0.00037202
     atom    4 type  1   force =     0.00000000    0.00000000    0.00037202
     atom    5 type  1   force =     0.00000000    0.00000000   -0.00037203
     atom    6 type  1   force =     0.00000000    0.00000000   -0.00037203
     atom    7 type  1   force =     0.00000000    0.00000000    0.00430235
     atom    8 type  1   force =     0.00000000    0.00000000    0.00430235

     Total force =     0.008637     Total SCF correction =     0.000100


     entering subroutine stress ...

          total   stress  (Ry/bohr**3)                   (kbar)     P=  -11.34
  -0.00014239   0.00000000   0.00000000        -20.95      0.00      0.00
   0.00000000  -0.00014239   0.00000000          0.00    -20.95      0.00
   0.00000000   0.00000000   0.00005347          0.00      0.00      7.87


     number of scf cycles    =   3
     number of bfgs steps    =   2

     energy   old            =     -99.5882777393 Ry
     energy   new            =     -99.5883797312 Ry

     CASE: energy  _new < energy  _old

     new trust radius        =       0.0083017385 bohr
     new conv_thr            =       0.0000000102 Ry


ATOMIC_POSITIONS (crystal)
Al       0.000000000   0.000000000  -0.000620236
Al       0.500000000   0.500000000  -0.000620235
Al       0.500000000   0.000000000   0.125110246
Al       0.000000000   0.500000000   0.125110246
Al       0.000000000   0.000000000   0.249889757
Al       0.500000000   0.500000000   0.249889757
Al       0.500000000   0.000000000   0.375620233
Al       0.000000000   0.500000000   0.375620233



     Writing output data file Al_100_2_2.save
     NEW-OLD atomic charge density approx. for the potential

     total cpu time spent up to now is     1061.4 secs

     per-process dynamical memory:   302.4 Mb

     Self-consistent Calculation

     iteration #  1     ecut=    80.00 Ry     beta=0.30
     Davidson diagonalization with overlap
     ethr =  1.00E-06,  avg # of iterations =  3.0

     Threshold (ethr) on eigenvalues was too large:
     Diagonalizing with lowered threshold

     Davidson diagonalization with overlap
     ethr =  5.56E-08,  avg # of iterations =  2.1

     total cpu time spent up to now is     1134.6 secs

     total energy              =     -99.58851580 Ry
     Harris-Foulkes estimate   =     -99.58851724 Ry
     estimated scf accuracy    <       0.00001598 Ry

     iteration #  2     ecut=    80.00 Ry     beta=0.30
     Davidson diagonalization with overlap
     ethr =  6.66E-08,  avg # of iterations =  1.0

     total cpu time spent up to now is     1162.7 secs

     total energy              =     -99.58851206 Ry
     Harris-Foulkes estimate   =     -99.58851595 Ry
     estimated scf accuracy    <       0.00001042 Ry

     iteration #  3     ecut=    80.00 Ry     beta=0.30
     Davidson diagonalization with overlap
     ethr =  4.34E-08,  avg # of iterations =  2.0

     total cpu time spent up to now is     1197.5 secs

     total energy              =     -99.58851418 Ry
     Harris-Foulkes estimate   =     -99.58851463 Ry
     estimated scf accuracy    <       0.00000232 Ry

     iteration #  4     ecut=    80.00 Ry     beta=0.30
     Davidson diagonalization with overlap
     ethr =  9.65E-09,  avg # of iterations =  1.6

     total cpu time spent up to now is     1226.6 secs

     total energy              =     -99.58851432 Ry
     Harris-Foulkes estimate   =     -99.58851433 Ry
     estimated scf accuracy    <       0.00000036 Ry

     iteration #  5     ecut=    80.00 Ry     beta=0.30
     Davidson diagonalization with overlap
     ethr =  1.51E-09,  avg # of iterations =  1.9

     total cpu time spent up to now is     1261.4 secs

     total energy              =     -99.58851428 Ry
     Harris-Foulkes estimate   =     -99.58851434 Ry
     estimated scf accuracy    <       0.00000016 Ry

     iteration #  6     ecut=    80.00 Ry     beta=0.30
     Davidson diagonalization with overlap
     ethr =  6.79E-10,  avg # of iterations =  2.6

     total cpu time spent up to now is     1300.1 secs

     total energy              =     -99.58851433 Ry
     Harris-Foulkes estimate   =     -99.58851433 Ry
     estimated scf accuracy    <       0.00000011 Ry

     iteration #  7     ecut=    80.00 Ry     beta=0.30
     Davidson diagonalization with overlap
     ethr =  4.64E-10,  avg # of iterations =  1.0

     total cpu time spent up to now is     1335.3 secs

     total energy              =     -99.58851432 Ry
     Harris-Foulkes estimate   =     -99.58851433 Ry
     estimated scf accuracy    <       0.00000010 Ry

     iteration #  8     ecut=    80.00 Ry     beta=0.30
     Davidson diagonalization with overlap
     ethr =  4.02E-10,  avg # of iterations =  1.0

     total cpu time spent up to now is     1365.4 secs

     total energy              =     -99.58851432 Ry
     Harris-Foulkes estimate   =     -99.58851432 Ry
     estimated scf accuracy    <       0.00000003 Ry

     iteration #  9     ecut=    80.00 Ry     beta=0.30
     Davidson diagonalization with overlap
     ethr =  1.29E-10,  avg # of iterations =  1.0

     total cpu time spent up to now is     1396.2 secs

     total energy              =     -99.58851432 Ry
     Harris-Foulkes estimate   =     -99.58851432 Ry
     estimated scf accuracy    <       0.00000002 Ry

     iteration # 10     ecut=    80.00 Ry     beta=0.30
     Davidson diagonalization with overlap
     ethr =  6.31E-11,  avg # of iterations =  1.0

     total cpu time spent up to now is     1425.2 secs

     End of self-consistent calculation

          k = 0.0000 0.0000 0.0000 ( 21235 PWs)   bands (ev):

    -8.8054  -7.3970  -5.2402  -2.3776  -0.5572  -0.5572  -0.0553   0.7457
     0.7457   0.8184   0.8184   2.2668   2.2668   2.7564   2.7564   3.4338

          k = 0.0000 0.0625 0.0000 ( 21277 PWs)   bands (ev):

    -8.7697  -7.3616  -5.2052  -2.3429  -1.1209  -0.5244  -0.0221   0.1981
     0.7785   0.8788   1.4301   2.2111   2.3522   2.7891   2.8453   3.4662

          k = 0.0000 0.1250 0.0000 ( 21233 PWs)   bands (ev):

    -8.6627  -7.2554  -5.1002  -2.2387  -2.0190  -0.6758  -0.4260   0.0775
     0.8768   0.9831   1.3845   2.2826   2.6545   2.8870   3.5625   3.8490

          k = 0.0000 0.1875 0.0000 ( 21254 PWs)   bands (ev):

    -8.4844  -7.0785  -4.9252  -2.9140  -2.0654  -1.5571  -0.2619   0.2433
     0.5222   1.0407   1.1517   2.5295   3.0502   3.2535   3.7193   3.7680

          k = 0.0000 0.2500 0.0000 ( 21288 PWs)   bands (ev):

    -8.2353  -6.8313  -4.6808  -3.7621  -2.3956  -1.8233  -0.3022  -0.0322
     0.4751   1.2702   1.3787   2.4972   2.7675   3.2787   3.9253   4.1713

          k = 0.0000 0.3125 0.0000 ( 21250 PWs)   bands (ev):

    -7.9155  -6.5140  -4.5522  -4.3671  -3.1781  -1.5130  -1.0730   0.2632
     0.7726   1.5436   1.5653   1.8986   3.0452   3.4159   3.5724   3.9719

          k = 0.0000 0.3750 0.0000 ( 21262 PWs)   bands (ev):

    -7.5257  -6.1271  -5.2798  -3.9847  -3.8993  -1.7843  -1.1353   0.6243
     1.0065   1.1351   1.9259   2.1157   2.7262   3.1115   3.6017   3.9313

          k = 0.0000 0.4375 0.0000 ( 21286 PWs)   bands (ev):

    -7.0664  -5.9423  -5.6714  -4.5563  -3.5342  -2.4328  -0.6915   0.3858
     1.0511   1.5615   2.1020   2.3522   2.5346   2.5903   3.4014   3.5434

          k = 0.0000-0.5000 0.0000 ( 21214 PWs)   bands (ev):

    -6.5383  -6.5383  -5.1475  -5.1475  -3.0166  -3.0166  -0.1834  -0.1834
     1.5437   1.5437   2.0493   2.0493   2.8440   2.8440   3.0183   3.0183

          k = 0.0625 0.0625 0.0000 ( 21255 PWs)   bands (ev):

    -8.7340  -7.3262  -5.1702  -2.3082  -1.0880  -1.0880   0.0111   0.2404
     0.2404   1.4898   1.4898   2.2735   2.2735   2.8925   2.8925   3.4979

          k = 0.0625 0.1250 0.0000 ( 21240 PWs)   bands (ev):

    -8.6270  -7.2200  -5.0652  -2.2041  -1.9854  -0.9938  -0.6308   0.1106
     0.3422   1.4210   1.5982   2.3716   2.5348   3.0240   3.5911   3.9269

          k = 0.0625 0.1875 0.0000 ( 21259 PWs)   bands (ev):

    -8.4488  -7.0432  -4.8903  -2.8799  -2.0308  -1.5257  -0.8142   0.2763
     0.4947   0.5714   1.7636   2.5212   3.1067   3.3513   3.7305   3.8086

          k = 0.0625 0.2500 0.0000 ( 21265 PWs)   bands (ev):

    -8.1997  -6.7960  -4.6459  -3.7277  -2.3620  -1.7888  -0.5834  -0.2690
     0.5079   0.7431   1.9688   2.4890   2.8605   3.3476   3.5843   4.0633

          k = 0.0625 0.3125 0.0000 ( 21231 PWs)   bands (ev):

    -7.8800  -6.4788  -4.5176  -4.3323  -3.1439  -1.4787  -1.0393  -0.2848
     0.8050   1.0406   1.7137   2.3608   2.8825   3.0966   3.5793   4.0404

          k = 0.0625 0.3750 0.0000 ( 21241 PWs)   bands (ev):

    -7.4903  -6.0920  -5.2450  -3.9500  -3.8648  -1.7503  -1.1014   0.0782
     1.0563   1.1668   1.4032   2.2004   2.7013   3.2319   3.4484   3.5220

          k = 0.0625 0.4375 0.0000 ( 21278 PWs)   bands (ev):

    -7.0311  -5.9074  -5.6364  -4.5217  -3.4997  -2.3986  -0.6582   0.3820
     0.5571   1.5768   1.5907   1.8266   2.6488   2.9016   3.1218   3.8692

          k = 0.0625-0.5000 0.0000 ( 21274 PWs)   bands (ev):

    -6.5031  -6.5031  -5.1126  -5.1126  -2.9822  -2.9822  -0.1519  -0.1519
     1.0176   1.0176   2.0532   2.0532   2.3691   2.3691   3.5985   3.5985

          k = 0.1250 0.1250 0.0000 ( 21235 PWs)   bands (ev):

    -8.5201  -7.1139  -4.9602  -2.1001  -1.8851  -1.8851  -0.5331  -0.5331
     0.2099   1.5190   1.5190   2.6675   2.6675   3.6631   4.0372   4.0372

          k = 0.1250 0.1875 0.0000 ( 21238 PWs)   bands (ev):

    -8.3420  -6.9372  -4.7855  -2.7779  -1.9271  -1.7274  -1.4035  -0.3660
     0.3753   0.6568   1.6773   2.8204   3.4746   3.4986   3.8158   3.9973

          k = 0.1250 0.2500 0.0000 ( 21279 PWs)   bands (ev):

    -8.0931  -6.6902  -4.5413  -3.6247  -2.2629  -1.6856  -1.4700  -0.1846
    -0.1134   0.6062   1.8774   2.6387   2.7696   3.1326   4.1100   4.1415

          k = 0.1250 0.3125 0.0000 ( 21265 PWs)   bands (ev):

    -7.7737  -6.3732  -4.4138  -4.2279  -3.0417  -1.3762  -1.1700  -0.9383
     0.1715   0.9020   1.7747   2.0289   2.3231   3.3642   3.3997   3.9442

          k = 0.1250 0.3750 0.0000 ( 21243 PWs)   bands (ev):

    -7.3842  -5.9868  -5.1406  -3.8460  -3.7615  -1.6483  -1.0000  -0.8016
     0.5380   1.1485   1.2600   1.3404   2.6251   2.6799   3.3381   3.7528

          k = 0.1250 0.4375 0.0000 ( 21235 PWs)   bands (ev):

    -6.9253  -5.8024  -5.5315  -4.4177  -3.3961  -2.2960  -0.5595  -0.3697
     0.5311   0.7135   0.9689   1.6573   2.0822   2.7444   3.0406   4.0659

          k = 0.1250-0.5000 0.0000 ( 21262 PWs)   bands (ev):

    -6.3977  -6.3977  -5.0081  -5.0081  -2.8790  -2.8790  -0.0803  -0.0803
     0.1751   0.1751   1.4559   1.4559   2.2089   2.2089   3.5251   3.5251

          k = 0.1875 0.1875 0.0000 ( 21227 PWs)   bands (ev):

    -8.1642  -6.7607  -4.6110  -2.6087  -2.6087  -1.7547  -1.2448  -1.2448
     0.5399   0.8198   0.8198   2.7205   3.5546   3.5546   4.0650   4.0784

          k = 0.1875 0.2500 0.0000 ( 21239 PWs)   bands (ev):

    -7.9155  -6.5140  -4.3672  -3.4532  -2.3834  -2.0687  -1.5139  -1.0095
    -0.0006   0.7693   1.0439   1.9217   2.8046   3.2617   3.7596   4.2890

          k = 0.1875 0.3125 0.0000 ( 21256 PWs)   bands (ev):

    -7.5965  -6.1975  -4.2410  -4.0543  -2.8735  -2.0536  -1.2058  -0.7767
    -0.6981   1.0610   1.1694   1.3055   2.1048   2.5149   3.8291   4.3856

          k = 0.1875 0.3750 0.0000 ( 21255 PWs)   bands (ev):

    -7.2075  -5.8115  -4.9667  -3.6728  -3.5898  -1.6840  -1.4787  -0.8326
    -0.3350   0.4760   1.2467   1.3919   1.8402   1.8524   3.4424   3.8400

          k = 0.1875 0.4375 0.0000 ( 21262 PWs)   bands (ev):

    -6.7492  -5.6277  -5.3568  -4.2447  -3.2236  -2.1252  -1.2458  -0.4160
    -0.1341   0.1005   0.6816   1.1524   1.8852   2.2043   2.8873   3.2355

          k = 0.1875-0.5000 0.0000 ( 21258 PWs)   bands (ev):

    -6.2223  -6.2223  -4.8342  -4.8342  -2.7073  -2.7073  -0.7447  -0.7447
     0.1273   0.1273   0.5997   0.5997   2.3547   2.3547   2.6854   2.6854

          k = 0.2500 0.2500 0.0000 ( 21291 PWs)   bands (ev):

    -7.6673  -6.2678  -4.1238  -3.2144  -3.2144  -1.8434  -1.8434  -1.2746
     0.2300   0.2300   0.9946   1.1100   2.4571   3.0159   3.0159   4.3252

          k = 0.2500 0.3125 0.0000 ( 21272 PWs)   bands (ev):

    -7.3488  -5.9518  -3.9997  -3.8115  -2.9198  -2.6093  -1.5390  -0.9695
    -0.5345   0.3522   0.5214   1.2589   1.7319   2.2964   3.2563   3.7212

          k = 0.2500 0.3750 0.0000 ( 21229 PWs)   bands (ev):

    -6.9605  -5.5665  -4.7238  -3.4308  -3.3520  -2.5197  -1.2441  -1.1636
    -0.6184  -0.3265   0.8477   0.9634   1.6534   1.6891   3.0532   3.3762

          k = 0.2500 0.4375 0.0000 ( 21285 PWs)   bands (ev):

    -6.5030  -5.3835  -5.1127  -4.0031  -2.9825  -2.0803  -1.8866  -1.0027
    -0.7270  -0.1443   0.3445   0.8442   1.4611   2.0921   2.4377   3.0499

          k = 0.2500-0.5000 0.0000 ( 21228 PWs)   bands (ev):

    -5.9770  -5.9770  -4.5911  -4.5911  -2.4674  -2.4674  -1.5727  -1.5727
    -0.2227  -0.2227   0.3442   0.3442   1.8905   1.8905   2.5595   2.5595

          k = 0.3125 0.3125 0.0000 ( 21275 PWs)   bands (ev):

    -7.0310  -5.6365  -3.6908  -3.6908  -3.5000  -2.3152  -2.3152  -0.6860
    -0.3914  -0.2354  -0.2354   0.8996   1.6235   2.5666   2.5666   2.9915

          k = 0.3125 0.3750 0.0000 ( 21275 PWs)   bands (ev):

    -6.6436  -5.2522  -4.4123  -3.3262  -3.1204  -3.0184  -1.9415  -1.1332
    -0.9383  -0.2808   0.1239   0.2151   1.9052   1.9603   2.3117   2.8694

          k = 0.3125 0.4375 0.0000 ( 21274 PWs)   bands (ev):

    -6.1871  -5.0702  -4.7996  -3.6954  -2.8566  -2.6733  -1.7712  -1.5813
    -1.4992  -0.4194   0.1406   0.5164   1.3255   1.6989   2.3618   3.0494

          k = 0.3125-0.5000 0.0000 ( 21268 PWs)   bands (ev):

    -5.6623  -5.6623  -4.2796  -4.2796  -2.3477  -2.3477  -2.1597  -2.1597
    -0.9919  -0.9919   0.5739   0.5739   1.2037   1.2037   2.7865   2.7865

          k = 0.3750 0.3750 0.0000 ( 21286 PWs)   bands (ev):

    -6.2572  -4.8691  -4.0333  -4.0333  -2.7421  -2.6548  -2.6548  -1.8377
    -0.5706  -0.5706  -0.4853   0.0726   1.6346   2.2405   2.2405   2.2958

          k = 0.3750 0.4375 0.0000 ( 21262 PWs)   bands (ev):

    -5.8019  -4.6885  -4.4182  -3.5987  -3.2926  -2.4822  -2.2966  -2.2118
    -1.2088  -1.1251  -0.1431   0.4383   1.0738   1.6417   2.6088   2.6545

          k = 0.3750-0.5000 0.0000 ( 21302 PWs)   bands (ev):

    -5.2786  -5.2786  -3.9021  -3.9021  -3.0600  -3.0600  -1.7850  -1.7850
    -1.7012  -1.7012   0.3164   0.3164   1.1271   1.1271   2.8524   2.8524

          k = 0.4375 0.4375 0.0000 ( 21312 PWs)   bands (ev):

    -5.3482  -4.2396  -4.2396  -3.9711  -3.1280  -2.8595  -2.8595  -1.8532
    -1.7686  -0.7726  -0.7726   0.2495   1.0607   2.0434   2.0434   2.7866

          k = 0.4375-0.5000 0.0000 ( 21278 PWs)   bands (ev):

    -4.8269  -4.8269  -3.7353  -3.7353  -3.4301  -3.4301  -2.3474  -2.3474
    -1.3444  -1.3444  -0.2771  -0.2771   1.5092   1.5092   2.4777   2.4777

          k =-0.5000-0.5000 0.0000 ( 21288 PWs)   bands (ev):

    -4.3084  -4.3084  -4.3084  -4.3084  -2.9279  -2.9279  -2.9279  -2.9279
    -0.8400  -0.8400  -0.8400  -0.8400   1.9774   1.9774   1.9774   1.9774

     the Fermi energy is     1.9257 ev

!    total energy              =     -99.58851431 Ry
     Harris-Foulkes estimate   =     -99.58851432 Ry
     estimated scf accuracy    <          7.1E-09 Ry

     The total energy is the sum of the following terms:

     one-electron contribution =    -134.26388139 Ry
     hartree contribution      =      73.78383679 Ry
     xc contribution           =     -79.84026391 Ry
     ewald contribution        =      40.73157904 Ry
     smearing contrib. (-TS)   =       0.00021515 Ry

     convergence has been achieved in  10 iterations

     Forces acting on atoms (Ry/au):

     atom    1 type  1   force =     0.00000000    0.00000000   -0.00378566
     atom    2 type  1   force =     0.00000000    0.00000000   -0.00378566
     atom    3 type  1   force =     0.00000000    0.00000000   -0.00021016
     atom    4 type  1   force =     0.00000000    0.00000000   -0.00021016
     atom    5 type  1   force =     0.00000000    0.00000000    0.00021015
     atom    6 type  1   force =     0.00000000    0.00000000    0.00021015
     atom    7 type  1   force =     0.00000000    0.00000000    0.00378567
     atom    8 type  1   force =     0.00000000    0.00000000    0.00378567

     Total force =     0.007583     Total SCF correction =     0.000135


     entering subroutine stress ...

          total   stress  (Ry/bohr**3)                   (kbar)     P=  -11.72
  -0.00014412   0.00000000   0.00000000        -21.20      0.00      0.00
   0.00000000  -0.00014412   0.00000000          0.00    -21.20      0.00
   0.00000000   0.00000000   0.00004920          0.00      0.00      7.24


     number of scf cycles    =   4
     number of bfgs steps    =   3

     energy   old            =     -99.5883797312 Ry
     energy   new            =     -99.5885143146 Ry

     CASE: energy  _new < energy  _old

     new trust radius        =       0.0124526078 bohr
     new conv_thr            =       0.0000000135 Ry


ATOMIC_POSITIONS (crystal)
Al       0.000000000   0.000000000  -0.001029592
Al       0.500000000   0.500000000  -0.001029591
Al       0.500000000   0.000000000   0.125134958
Al       0.000000000   0.500000000   0.125134958
Al       0.000000000   0.000000000   0.249865044
Al       0.500000000   0.500000000   0.249865044
Al       0.500000000   0.000000000   0.376029588
Al       0.000000000   0.500000000   0.376029588



     Writing output data file Al_100_2_2.save
     NEW-OLD atomic charge density approx. for the potential

     total cpu time spent up to now is     1442.7 secs

     per-process dynamical memory:   302.4 Mb

     Self-consistent Calculation

     iteration #  1     ecut=    80.00 Ry     beta=0.30
     Davidson diagonalization with overlap
     ethr =  1.00E-06,  avg # of iterations =  3.0

     Threshold (ethr) on eigenvalues was too large:
     Diagonalizing with lowered threshold

     Davidson diagonalization with overlap
     ethr =  9.94E-08,  avg # of iterations =  1.1

     total cpu time spent up to now is     1522.1 secs

     total energy              =     -99.58868505 Ry
     Harris-Foulkes estimate   =     -99.58868739 Ry
     estimated scf accuracy    <       0.00002459 Ry

     iteration #  2     ecut=    80.00 Ry     beta=0.30
     Davidson diagonalization with overlap
     ethr =  1.02E-07,  avg # of iterations =  1.0

     total cpu time spent up to now is     1552.2 secs

     total energy              =     -99.58867944 Ry
     Harris-Foulkes estimate   =     -99.58868532 Ry
     estimated scf accuracy    <       0.00001562 Ry

     iteration #  3     ecut=    80.00 Ry     beta=0.30
     Davidson diagonalization with overlap
     ethr =  6.51E-08,  avg # of iterations =  2.0

     total cpu time spent up to now is     1587.8 secs

     total energy              =     -99.58868272 Ry
     Harris-Foulkes estimate   =     -99.58868313 Ry
     estimated scf accuracy    <       0.00000262 Ry

     iteration #  4     ecut=    80.00 Ry     beta=0.30
     Davidson diagonalization with overlap
     ethr =  1.09E-08,  avg # of iterations =  1.0

     total cpu time spent up to now is     1616.7 secs

     total energy              =     -99.58868273 Ry
     Harris-Foulkes estimate   =     -99.58868283 Ry
     estimated scf accuracy    <       0.00000099 Ry

     iteration #  5     ecut=    80.00 Ry     beta=0.30
     Davidson diagonalization with overlap
     ethr =  4.11E-09,  avg # of iterations =  1.7

     total cpu time spent up to now is     1646.3 secs

     total energy              =     -99.58868271 Ry
     Harris-Foulkes estimate   =     -99.58868278 Ry
     estimated scf accuracy    <       0.00000020 Ry

     iteration #  6     ecut=    80.00 Ry     beta=0.30
     Davidson diagonalization with overlap
     ethr =  8.37E-10,  avg # of iterations =  2.9

     total cpu time spent up to now is     1683.9 secs

     total energy              =     -99.58868276 Ry
     Harris-Foulkes estimate   =     -99.58868276 Ry
     estimated scf accuracy    <       0.00000008 Ry

     iteration #  7     ecut=    80.00 Ry     beta=0.30
     Davidson diagonalization with overlap
     ethr =  3.21E-10,  avg # of iterations =  1.0

     total cpu time spent up to now is     1711.6 secs

     total energy              =     -99.58868276 Ry
     Harris-Foulkes estimate   =     -99.58868276 Ry
     estimated scf accuracy    <       0.00000007 Ry

     iteration #  8     ecut=    80.00 Ry     beta=0.30
     Davidson diagonalization with overlap
     ethr =  3.11E-10,  avg # of iterations =  1.0

     total cpu time spent up to now is     1741.6 secs

     total energy              =     -99.58868276 Ry
     Harris-Foulkes estimate   =     -99.58868276 Ry
     estimated scf accuracy    <       0.00000002 Ry

     iteration #  9     ecut=    80.00 Ry     beta=0.30
     Davidson diagonalization with overlap
     ethr =  6.81E-11,  avg # of iterations =  2.2

     total cpu time spent up to now is     1773.4 secs

     End of self-consistent calculation

          k = 0.0000 0.0000 0.0000 ( 21235 PWs)   bands (ev):

    -8.7928  -7.3803  -5.2415  -2.3843  -0.5440  -0.5440  -0.0625   0.7646
     0.7646   0.8312   0.8312   2.2825   2.2825   2.7553   2.7553   3.4198

          k = 0.0000 0.0625 0.0000 ( 21277 PWs)   bands (ev):

    -8.7571  -7.3449  -5.2064  -2.3496  -1.1078  -0.5112  -0.0293   0.2162
     0.7974   0.8916   1.4433   2.2159   2.3617   2.7880   2.8620   3.4522

          k = 0.0000 0.1250 0.0000 ( 21233 PWs)   bands (ev):

    -8.6501  -7.2387  -5.1013  -2.2454  -2.0061  -0.6582  -0.4127   0.0703
     0.8958   0.9958   1.3844   2.2971   2.6676   2.8859   3.5487   3.8611

          k = 0.0000 0.1875 0.0000 ( 21254 PWs)   bands (ev):

    -8.4718  -7.0618  -4.9264  -2.9011  -2.0720  -1.5397  -0.2487   0.2361
     0.5217   1.0597   1.1645   2.5446   3.0491   3.2473   3.7059   3.7808

          k = 0.0000 0.2500 0.0000 ( 21288 PWs)   bands (ev):

    -8.2226  -6.8145  -4.6819  -3.7493  -2.3784  -1.8299  -0.3028  -0.0190
     0.4680   1.2892   1.3915   2.4906   2.7826   3.2776   3.9132   4.1847

          k = 0.0000 0.3125 0.0000 ( 21250 PWs)   bands (ev):

    -7.9029  -6.4972  -4.5395  -4.3682  -3.1610  -1.5195  -1.0738   0.2764
     0.7655   1.5496   1.5843   1.8988   3.0592   3.4293   3.5713   3.9678

          k = 0.0000 0.3750 0.0000 ( 21262 PWs)   bands (ev):

    -7.5131  -6.1103  -5.2671  -3.9857  -3.8823  -1.7851  -1.1418   0.6375
     1.0014   1.1282   1.9450   2.1269   2.7395   3.1106   3.6122   3.9301

          k = 0.0000 0.4375 0.0000 ( 21286 PWs)   bands (ev):

    -7.0537  -5.9297  -5.6545  -4.5394  -3.5353  -2.4337  -0.6979   0.3799
     1.0644   1.5547   2.1154   2.3713   2.5466   2.5843   3.4206   3.5554

          k = 0.0000-0.5000 0.0000 ( 21214 PWs)   bands (ev):

    -6.5256  -6.5256  -5.1306  -5.1306  -3.0176  -3.0176  -0.1896  -0.1896
     1.5570   1.5570   2.0428   2.0428   2.8632   2.8632   3.0306   3.0306

          k = 0.0625 0.0625 0.0000 ( 21255 PWs)   bands (ev):

    -8.7214  -7.3095  -5.1714  -2.3148  -1.0750  -1.0750   0.0039   0.2585
     0.2585   1.5028   1.5028   2.2730   2.2730   2.9083   2.9083   3.4840

          k = 0.0625 0.1250 0.0000 ( 21240 PWs)   bands (ev):

    -8.6144  -7.2033  -5.0664  -2.2107  -1.9725  -0.9807  -0.6132   0.1034
     0.3605   1.4205   1.6111   2.3708   2.5482   3.0394   3.5776   3.9430

          k = 0.0625 0.1875 0.0000 ( 21259 PWs)   bands (ev):

    -8.4362  -7.0264  -4.8915  -2.8671  -2.0374  -1.5083  -0.8012   0.2691
     0.5099   0.5738   1.7766   2.5201   3.1227   3.3451   3.7187   3.8215

          k = 0.0625 0.2500 0.0000 ( 21265 PWs)   bands (ev):

    -8.1871  -6.7792  -4.6470  -3.7150  -2.3447  -1.7954  -0.5704  -0.2696
     0.5008   0.7611   1.9812   2.4840   2.8586   3.3633   3.5943   4.0532

          k = 0.0625 0.3125 0.0000 ( 21231 PWs)   bands (ev):

    -7.8674  -6.4620  -4.5049  -4.3334  -3.1268  -1.4852  -1.0400  -0.2718
     0.7980   1.0587   1.7097   2.3711   2.8955   3.0956   3.5905   4.0398

          k = 0.0625 0.3750 0.0000 ( 21241 PWs)   bands (ev):

    -7.4777  -6.0752  -5.2323  -3.9511  -3.8478  -1.7511  -1.1079   0.0913
     1.0504   1.1599   1.4214   2.2135   2.7134   3.2270   3.4475   3.5406

          k = 0.0625 0.4375 0.0000 ( 21278 PWs)   bands (ev):

    -7.0184  -5.8947  -5.6196  -4.5047  -3.5007  -2.3995  -0.6646   0.3811
     0.5650   1.5841   1.5899   1.8445   2.6431   2.9200   3.1342   3.8683

          k = 0.0625-0.5000 0.0000 ( 21274 PWs)   bands (ev):

    -6.4905  -6.4905  -5.0957  -5.0957  -2.9832  -2.9832  -0.1580  -0.1580
     1.0305   1.0305   2.0490   2.0490   2.3852   2.3852   3.6109   3.6109

          k = 0.1250 0.1250 0.0000 ( 21235 PWs)   bands (ev):

    -8.5075  -7.0971  -4.9614  -2.1067  -1.8721  -1.8721  -0.5154  -0.5154
     0.2028   1.5183   1.5183   2.6805   2.6805   3.6513   4.0536   4.0536

          k = 0.1250 0.1875 0.0000 ( 21238 PWs)   bands (ev):

    -8.3294  -6.9204  -4.7867  -2.7650  -1.9337  -1.7142  -1.3864  -0.3483
     0.3681   0.6560   1.6766   2.8330   3.4687   3.5066   3.8289   3.9881

          k = 0.1250 0.2500 0.0000 ( 21279 PWs)   bands (ev):

    -8.0805  -6.6734  -4.5424  -3.6119  -2.2456  -1.6921  -1.4570  -0.1802
    -0.1009   0.5992   1.8764   2.6353   2.7824   3.1428   4.1276   4.1284

          k = 0.1250 0.3125 0.0000 ( 21265 PWs)   bands (ev):

    -7.7610  -6.3564  -4.4011  -4.2291  -3.0245  -1.3826  -1.1571  -0.9390
     0.1891   0.8950   1.7698   2.0419   2.3214   3.3824   3.4119   3.9404

          k = 0.1250 0.3750 0.0000 ( 21243 PWs)   bands (ev):

[...]
     atom    3 type  1   force =     0.00000000    0.00000000   -0.00139984
     atom    4 type  1   force =     0.00000000    0.00000000   -0.00139984
     atom    5 type  1   force =     0.00000000    0.00000000    0.00139982
     atom    6 type  1   force =     0.00000000    0.00000000    0.00139982
     atom    7 type  1   force =     0.00000000    0.00000000   -0.00066674
     atom    8 type  1   force =     0.00000000    0.00000000   -0.00066674

     Total force =     0.003101     Total SCF correction =     0.000039


     entering subroutine stress ...

          total   stress  (Ry/bohr**3)                   (kbar)     P=  -16.53
  -0.00016676   0.00000000   0.00000000        -24.53      0.00      0.00
   0.00000000  -0.00016676   0.00000000          0.00    -24.53      0.00
   0.00000000   0.00000000  -0.00000363          0.00      0.00     -0.53


     number of scf cycles    =  10
     number of bfgs steps    =   9

     energy   old            =     -99.5891633352 Ry
     energy   new            =     -99.5892351215 Ry

     CASE: energy  _new < energy  _old

     new trust radius        =       0.0071483776 bohr
     new conv_thr            =       0.0000000100 Ry


ATOMIC_POSITIONS (crystal)
Al       0.000000000   0.000000000  -0.004058967
Al       0.500000000   0.500000000  -0.004058965
Al       0.500000000   0.000000000   0.124053694
Al       0.000000000   0.500000000   0.124053694
Al       0.000000000   0.000000000   0.250946312
Al       0.500000000   0.500000000   0.250946312
Al       0.500000000   0.000000000   0.379058960
Al       0.000000000   0.500000000   0.379058960



     Writing output data file Al_100_2_2.save
     NEW-OLD atomic charge density approx. for the potential

     total cpu time spent up to now is     3355.5 secs

     per-process dynamical memory:   302.4 Mb

     Self-consistent Calculation

     iteration #  1     ecut=    80.00 Ry     beta=0.30
     Davidson diagonalization with overlap
     ethr =  1.00E-06,  avg # of iterations =  2.9

     total cpu time spent up to now is     3394.8 secs

     total energy              =     -99.58926251 Ry
     Harris-Foulkes estimate   =     -99.58926508 Ry
     estimated scf accuracy    <       0.00002794 Ry

     iteration #  2     ecut=    80.00 Ry     beta=0.30
     Davidson diagonalization with overlap
     ethr =  1.16E-07,  avg # of iterations =  1.6

     total cpu time spent up to now is     3422.0 secs

     total energy              =     -99.58925706 Ry
     Harris-Foulkes estimate   =     -99.58926360 Ry
     estimated scf accuracy    <       0.00001748 Ry

     iteration #  3     ecut=    80.00 Ry     beta=0.30
     Davidson diagonalization with overlap
     ethr =  7.29E-08,  avg # of iterations =  2.4

     total cpu time spent up to now is     3456.3 secs

     total energy              =     -99.58926070 Ry
     Harris-Foulkes estimate   =     -99.58926113 Ry
     estimated scf accuracy    <       0.00000226 Ry

     iteration #  4     ecut=    80.00 Ry     beta=0.30
     Davidson diagonalization with overlap
     ethr =  9.42E-09,  avg # of iterations =  1.5

     total cpu time spent up to now is     3483.9 secs

     total energy              =     -99.58926095 Ry
     Harris-Foulkes estimate   =     -99.58926087 Ry
     estimated scf accuracy    <       0.00000047 Ry

     iteration #  5     ecut=    80.00 Ry     beta=0.30
     Davidson diagonalization with overlap
     ethr =  1.94E-09,  avg # of iterations =  1.2

     total cpu time spent up to now is     3511.4 secs

     total energy              =     -99.58926069 Ry
     Harris-Foulkes estimate   =     -99.58926097 Ry
     estimated scf accuracy    <       0.00000107 Ry

     iteration #  6     ecut=    80.00 Ry     beta=0.30
     Davidson diagonalization with overlap
     ethr =  1.94E-09,  avg # of iterations =  2.5

     total cpu time spent up to now is     3543.4 secs

     total energy              =     -99.58926086 Ry
     Harris-Foulkes estimate   =     -99.58926086 Ry
     estimated scf accuracy    <       0.00000012 Ry

     iteration #  7     ecut=    80.00 Ry     beta=0.30
     Davidson diagonalization with overlap
     ethr =  5.13E-10,  avg # of iterations =  1.0

     total cpu time spent up to now is     3570.6 secs

     total energy              =     -99.58926086 Ry
     Harris-Foulkes estimate   =     -99.58926086 Ry
     estimated scf accuracy    <       0.00000013 Ry

     iteration #  8     ecut=    80.00 Ry     beta=0.30
     Davidson diagonalization with overlap
     ethr =  5.13E-10,  avg # of iterations =  1.0

     total cpu time spent up to now is     3599.0 secs

     total energy              =     -99.58926085 Ry
     Harris-Foulkes estimate   =     -99.58926086 Ry
     estimated scf accuracy    <       0.00000013 Ry

     iteration #  9     ecut=    80.00 Ry     beta=0.30
     Davidson diagonalization with overlap
     ethr =  5.13E-10,  avg # of iterations =  1.4

     total cpu time spent up to now is     3626.7 secs

     total energy              =     -99.58926085 Ry
     Harris-Foulkes estimate   =     -99.58926085 Ry
     estimated scf accuracy    <       0.00000003 Ry

     iteration # 10     ecut=    80.00 Ry     beta=0.30
     Davidson diagonalization with overlap
     ethr =  1.22E-10,  avg # of iterations =  1.0

     total cpu time spent up to now is     3654.0 secs

     total energy              =     -99.58926085 Ry
     Harris-Foulkes estimate   =     -99.58926085 Ry
     estimated scf accuracy    <       0.00000002 Ry

     iteration # 11     ecut=    80.00 Ry     beta=0.30
     Davidson diagonalization with overlap
     ethr =  9.16E-11,  avg # of iterations =  1.8

     total cpu time spent up to now is     3681.7 secs

     End of self-consistent calculation

          k = 0.0000 0.0000 0.0000 ( 21235 PWs)   bands (ev):

    -8.6737  -7.3071  -5.2265  -2.4351  -0.4186  -0.4186  -0.1141   0.8467
     0.8467   0.9530   0.9530   2.3518   2.3518   2.7806   2.7806   3.3076

          k = 0.0000 0.0625 0.0000 ( 21277 PWs)   bands (ev):

    -8.6380  -7.2716  -5.1914  -2.4004  -0.9843  -0.3858  -0.0808   0.2982
     0.8795   1.0094   1.5676   2.2557   2.4116   2.8133   2.9360   3.3404

          k = 0.0000 0.1250 0.0000 ( 21233 PWs)   bands (ev):

    -8.5310  -7.1654  -5.0863  -2.2960  -1.8839  -0.5793  -0.2873   0.0190
     0.9778   1.1143   1.4082   2.3894   2.7641   2.9112   3.4381   3.8984

          k = 0.0000 0.1875 0.0000 ( 21254 PWs)   bands (ev):

    -8.3527  -6.9884  -4.9113  -2.7798  -2.1224  -1.4624  -0.1232   0.1851
     0.5428   1.1418   1.2840   2.6170   3.0744   3.2027   3.5985   3.8995

          k = 0.0000 0.2500 0.0000 ( 21288 PWs)   bands (ev):

    -8.1035  -6.7410  -4.6666  -3.6286  -2.3021  -1.8799  -0.2831   0.1066
     0.4174   1.3714   1.5124   2.4405   2.8528   3.3029   3.8143   4.3119

          k = 0.0000 0.3125 0.0000 ( 21250 PWs)   bands (ev):

    -7.7837  -6.4236  -4.4192  -4.3526  -3.0854  -1.5691  -1.0551   0.4022
     0.7156   1.5887   1.6666   1.9290   3.1244   3.5564   3.5965   3.9292

          k = 0.0000 0.3750 0.0000 ( 21262 PWs)   bands (ev):

    -7.3938  -6.0366  -5.1471  -3.9699  -3.8072  -1.7673  -1.1908   0.7635
     0.9634   1.0790   2.0274   2.2337   2.8663   3.0941   3.6535   3.9554

          k = 0.0000 0.4375 0.0000 ( 21286 PWs)   bands (ev):

    -6.9343  -5.8100  -5.5806  -4.4648  -3.5190  -2.4165  -0.7460   0.3354
     1.1905   1.5067   2.2420   2.4538   2.5417   2.6599   3.5033   3.6692

          k = 0.0000-0.5000 0.0000 ( 21214 PWs)   bands (ev):

    -6.4061  -6.4061  -5.0563  -5.0563  -3.0009  -3.0009  -0.2364  -0.2364
     1.6834   1.6834   1.9964   1.9964   2.9458   2.9458   3.1462   3.1462

          k = 0.0625 0.0625 0.0000 ( 21255 PWs)   bands (ev):

    -8.6023  -7.2362  -5.1564  -2.3656  -0.9513  -0.9513  -0.0476   0.3388
     0.3388   1.6246   1.6246   2.2980   2.2980   2.9777   2.9777   3.3727

          k = 0.0625 0.1250 0.0000 ( 21240 PWs)   bands (ev):

    -8.4953  -7.1300  -5.0513  -2.2613  -1.8502  -0.8570  -0.5352   0.0521
     0.4404   1.4425   1.7324   2.3942   2.6721   3.1086   3.4686   4.0095

          k = 0.0625 0.1875 0.0000 ( 21259 PWs)   bands (ev):

    -8.3171  -6.9531  -4.8763  -2.7457  -2.0878  -1.4304  -0.6785   0.2182
     0.5675   0.6162   1.8985   2.5421   3.2008   3.2970   3.6201   3.9378

          k = 0.0625 0.2500 0.0000 ( 21265 PWs)   bands (ev):

    -8.0679  -6.7057  -4.6317  -3.5942  -2.2683  -1.8454  -0.4469  -0.2497
     0.4503   0.8401   2.0968   2.4564   2.8645   3.4361   3.6708   3.9937

          k = 0.0625 0.3125 0.0000 ( 21231 PWs)   bands (ev):

    -7.7482  -6.3884  -4.3845  -4.3178  -3.0512  -1.5348  -1.0213  -0.1478
     0.7482   1.1380   1.6792   2.4741   3.0191   3.1159   3.6356   4.0243

          k = 0.0625 0.3750 0.0000 ( 21241 PWs)   bands (ev):

    -7.3584  -6.0015  -5.1123  -3.9352  -3.7727  -1.7332  -1.1567   0.2158
     1.0065   1.1109   1.5007   2.3378   2.8280   3.1891   3.4690   3.6207

          k = 0.0625 0.4375 0.0000 ( 21278 PWs)   bands (ev):

    -6.8991  -5.7750  -5.5456  -4.4301  -3.4845  -2.3823  -0.7124   0.3587
     0.6651   1.5367   1.7136   1.9225   2.6002   2.9993   3.2516   3.8899

          k = 0.0625-0.5000 0.0000 ( 21274 PWs)   bands (ev):

    -6.3709  -6.3709  -5.0214  -5.0214  -2.9665  -2.9665  -0.2039  -0.2039
     1.1528   1.1528   2.0120   2.0120   2.4552   2.4552   3.7291   3.7291

          k = 0.1250 0.1250 0.0000 ( 21235 PWs)   bands (ev):

    -8.3883  -7.0238  -4.9463  -2.1572  -1.7496  -1.7496  -0.4377  -0.4377
     0.1517   1.5398   1.5398   2.8044   2.8044   3.5531   4.1249   4.1249

          k = 0.1250 0.1875 0.0000 ( 21238 PWs)   bands (ev):

    -8.2103  -6.8470  -4.7714  -2.6435  -1.9839  -1.5917  -1.3098  -0.2702
     0.3174   0.6758   1.6980   2.9541   3.4200   3.5597   3.9443   3.9508

          k = 0.1250 0.2500 0.0000 ( 21279 PWs)   bands (ev):

    -7.9613  -6.5999  -4.5270  -3.4910  -2.1684  -1.7419  -1.3359  -0.1511
    -0.0331   0.5490   1.8958   2.6072   2.9040   3.2441   4.0160   4.2074

          k = 0.1250 0.3125 0.0000 ( 21265 PWs)   bands (ev):

    -7.6418  -6.2828  -4.2807  -4.2134  -2.9487  -1.4319  -1.0348  -0.9201
     0.2663   0.8456   1.7390   2.1650   2.3283   3.4610   3.5279   3.9060

          k = 0.1250 0.3750 0.0000 ( 21243 PWs)   bands (ev):

    -7.2523  -5.8961  -5.0078  -3.8311  -3.6693  -1.6312  -1.0547  -0.6657
     0.6333   1.0977   1.2054   1.4756   2.6421   2.7754   3.2906   3.8840

          k = 0.1250 0.4375 0.0000 ( 21235 PWs)   bands (ev):

    -6.7933  -5.6700  -5.4406  -4.3260  -3.3808  -2.2796  -0.6122  -0.2330
     0.4767   0.8469   1.0642   1.6142   2.1668   2.6935   3.0592   4.0822

          k = 0.1250-0.5000 0.0000 ( 21262 PWs)   bands (ev):

    -6.2655  -6.2655  -4.9169  -4.9169  -2.8633  -2.8633  -0.1128  -0.1128
     0.2889   0.2889   1.5476   1.5476   2.1598   2.1598   3.5439   3.5439

          k = 0.1875 0.1875 0.0000 ( 21227 PWs)   bands (ev):

    -8.0324  -6.6705  -4.5968  -2.4740  -2.4740  -1.8111  -1.1510  -1.1510
     0.4825   0.8392   0.8392   2.8544   3.5181   3.5181   3.9577   4.1964

          k = 0.1875 0.2500 0.0000 ( 21239 PWs)   bands (ev):

    -7.7837  -6.4237  -4.3527  -3.3194  -2.2484  -1.9760  -1.5698  -0.9151
     0.0175   0.7127   1.0634   2.0573   2.7539   3.3580   3.7129   4.1597

          k = 0.1875 0.3125 0.0000 ( 21256 PWs)   bands (ev):

    -7.4646  -6.1069  -4.1078  -4.0396  -2.7796  -1.9203  -1.2609  -0.7519
    -0.6111   1.0060   1.3041   1.3222   2.0540   2.6097   3.7897   4.3277

          k = 0.1875 0.3750 0.0000 ( 21255 PWs)   bands (ev):

    -7.0755  -5.7208  -4.8339  -3.6578  -3.4973  -1.5495  -1.4614  -0.8857
    -0.2411   0.6088   1.2084   1.3481   1.8429   1.9363   3.3979   3.8548

          k = 0.1875 0.4375 0.0000 ( 21262 PWs)   bands (ev):

    -6.6171  -5.4952  -5.2658  -4.1528  -3.2082  -2.1087  -1.1105  -0.4517
    -0.0185   0.1948   0.6290   1.2422   1.8362   2.2199   2.8376   3.2532

          k = 0.1875-0.5000 0.0000 ( 21258 PWs)   bands (ev):

    -6.0900  -6.0900  -4.7429  -4.7429  -2.6914  -2.6914  -0.6084  -0.6084
     0.0716   0.0716   0.6940   0.6940   2.3026   2.3026   2.7029   2.7029

          k = 0.2500 0.2500 0.0000 ( 21291 PWs)   bands (ev):

    -7.5355  -6.1773  -4.1091  -3.0802  -3.0802  -1.7505  -1.7505  -1.3297
     0.2486   0.2486   0.9394   1.2445   2.5516   2.9642   2.9642   4.2657

          k = 0.2500 0.3125 0.0000 ( 21272 PWs)   bands (ev):

    -7.2169  -5.8611  -3.8662  -3.7966  -2.7853  -2.5173  -1.4456  -1.0229
    -0.5168   0.4848   0.5402   1.2148   1.8155   2.2423   3.2078   3.7355

          k = 0.2500 0.3750 0.0000 ( 21229 PWs)   bands (ev):

    -6.8285  -5.4757  -4.5908  -3.4156  -3.2586  -2.3869  -1.2244  -1.0728
    -0.6558  -0.2099   0.8635   1.0523   1.6012   1.6402   3.0706   3.3359

          k = 0.2500 0.4375 0.0000 ( 21285 PWs)   bands (ev):

    -6.3708  -5.2509  -5.0216  -3.9110  -2.9669  -1.9462  -1.8699  -0.8666
    -0.6335  -0.2007   0.4383   0.8051   1.4629   2.0394   2.4547   3.0044

          k = 0.2500-0.5000 0.0000 ( 21228 PWs)   bands (ev):

    -5.8446  -5.8446  -4.4996  -4.4996  -2.4513  -2.4513  -1.4377  -1.4377
    -0.1289  -0.1289   0.2910   0.2910   1.9055   1.9055   2.5089   2.5089

          k = 0.3125 0.3125 0.0000 ( 21275 PWs)   bands (ev):

    -6.8990  -5.5457  -3.5570  -3.5570  -3.4849  -2.2230  -2.2230  -0.7240
    -0.2745  -0.2172  -0.2172   0.9883   1.5746   2.5137   2.5137   3.0087

          k = 0.3125 0.3750 0.0000 ( 21275 PWs)   bands (ev):

    -6.5114  -5.1612  -4.2791  -3.1920  -3.1050  -2.9269  -1.8489  -0.9972
    -0.9208  -0.3373   0.1423   0.3087   1.8504   1.9074   2.3285   2.8206

          k = 0.3125 0.4375 0.0000 ( 21274 PWs)   bands (ev):

    -6.0548  -4.9374  -4.7082  -3.6024  -2.7241  -2.6575  -1.6365  -1.5646
    -1.4061  -0.3257   0.0872   0.5316   1.2729   1.7135   2.3108   3.0087

          k = 0.3125-0.5000 0.0000 ( 21268 PWs)   bands (ev):

    -5.5298  -5.5298  -4.1878  -4.1878  -2.2139  -2.2139  -2.1435  -2.1435
    -0.8985  -0.8985   0.5345   0.5345   1.2050   1.2050   2.7404   2.7404

          k = 0.3750 0.3750 0.0000 ( 21286 PWs)   bands (ev):

    -6.1249  -4.7778  -3.8997  -3.8997  -2.7263  -2.5631  -2.5631  -1.7031
    -0.5526  -0.5526  -0.3917   0.0191   1.6491   2.1873   2.1873   2.2447

          k = 0.3750 0.4375 0.0000 ( 21262 PWs)   bands (ev):

    -5.6695  -4.5554  -4.3264  -3.4646  -3.2015  -2.3485  -2.2806  -2.1197
    -1.1913  -1.0318  -0.1249   0.3988   1.0750   1.5865   2.5598   2.6081

          k = 0.3750-0.5000 0.0000 ( 21302 PWs)   bands (ev):

    -5.1460  -5.1460  -3.8093  -3.8093  -2.9276  -2.9276  -1.7698  -1.7698
    -1.6070  -1.6070   0.3313   0.3313   1.0743   1.0743   2.8115   2.8115

          k = 0.4375 0.4375 0.0000 ( 21312 PWs)   bands (ev):

    -5.2156  -4.1061  -4.1061  -3.8783  -2.9957  -2.7680  -2.7680  -1.8384
    -1.6741  -0.7547  -0.7547   0.2643   1.0079   1.9899   1.9899   2.7456

          k = 0.4375-0.5000 0.0000 ( 21278 PWs)   bands (ev):

    -4.6939  -4.6939  -3.6013  -3.6013  -3.3391  -3.3391  -2.2556  -2.2556
    -1.3270  -1.3270  -0.2591  -0.2591   1.4538   1.4538   2.4287   2.4287

          k =-0.5000-0.5000 0.0000 ( 21288 PWs)   bands (ev):

    -4.1750  -4.1750  -4.1750  -4.1750  -2.8365  -2.8365  -2.8365  -2.8365
    -0.8223  -0.8223  -0.8223  -0.8223   1.9239   1.9239   1.9239   1.9239

     the Fermi energy is     1.9484 ev

!    total energy              =     -99.58926085 Ry
     Harris-Foulkes estimate   =     -99.58926085 Ry
     estimated scf accuracy    <          1.9E-09 Ry

     The total energy is the sum of the following terms:

     one-electron contribution =    -129.18515602 Ry
     hartree contribution      =      71.26348582 Ry
     xc contribution           =     -79.78577004 Ry
     ewald contribution        =      38.11796677 Ry
     smearing contrib. (-TS)   =       0.00021261 Ry

     convergence has been achieved in  11 iterations

     Forces acting on atoms (Ry/au):

     atom    1 type  1   force =     0.00000000    0.00000000    0.00031786
     atom    2 type  1   force =     0.00000000    0.00000000    0.00031785
     atom    3 type  1   force =     0.00000000    0.00000000   -0.00034291
     atom    4 type  1   force =     0.00000000    0.00000000   -0.00034291
     atom    5 type  1   force =     0.00000000    0.00000000    0.00034290
     atom    6 type  1   force =     0.00000000    0.00000000    0.00034289
     atom    7 type  1   force =     0.00000000    0.00000000   -0.00031784
     atom    8 type  1   force =     0.00000000    0.00000000   -0.00031784

     Total force =     0.000935     Total SCF correction =     0.000045


     entering subroutine stress ...

          total   stress  (Ry/bohr**3)                   (kbar)     P=  -16.57
  -0.00016713   0.00000000   0.00000000        -24.59      0.00      0.00
   0.00000000  -0.00016713   0.00000000          0.00    -24.59      0.00
   0.00000000   0.00000000  -0.00000361          0.00      0.00     -0.53


     bfgs converged in  11 scf cycles and  10 bfgs steps
     (criteria: energy <  1.0E-04, force <  1.0E-03)

     End of BFGS Geometry Optimization

     Final energy   =     -99.5892608497 Ry
Begin final coordinates

ATOMIC_POSITIONS (crystal)
Al       0.000000000   0.000000000  -0.004058967
Al       0.500000000   0.500000000  -0.004058965
Al       0.500000000   0.000000000   0.124053694
Al       0.000000000   0.500000000   0.124053694
Al       0.000000000   0.000000000   0.250946312
Al       0.500000000   0.500000000   0.250946312
Al       0.500000000   0.000000000   0.379058960
Al       0.000000000   0.500000000   0.379058960
End final coordinates



     Writing output data file Al_100_2_2.save

     init_run     :     22.30s CPU     25.10s WALL (       1 calls)
     electrons    :   2916.17s CPU   3492.89s WALL (      11 calls)
     update_pot   :      1.86s CPU      2.05s WALL (      10 calls)
     forces       :     55.43s CPU     56.51s WALL (      11 calls)
     stress       :    117.18s CPU    119.29s WALL (      11 calls)

     Called by init_run:
     wfcinit      :     21.80s CPU     24.57s WALL (       1 calls)
     potinit      :      0.08s CPU      0.10s WALL (       1 calls)

     Called by electrons:
     c_bands      :   2536.24s CPU   3023.81s WALL (     107 calls)
     sum_band     :    349.24s CPU    431.70s WALL (     107 calls)
     v_of_rho     :      9.05s CPU     10.46s WALL (     114 calls)
     newd         :      6.77s CPU      7.03s WALL (     114 calls)
     mix_rho      :     15.96s CPU     21.08s WALL (     107 calls)

     Called by c_bands:
     init_us_2    :     52.73s CPU     62.01s WALL (   10665 calls)
     cegterg      :   2481.54s CPU   2959.71s WALL (    4815 calls)

     Called by *egterg:
     h_psi        :   1490.90s CPU   1861.78s WALL (   13807 calls)
     s_psi        :    234.28s CPU    245.10s WALL (   13807 calls)
     g_psi        :      8.51s CPU     10.38s WALL (    8947 calls)
     cdiaghg      :      6.56s CPU      8.02s WALL (   13132 calls)

     Called by h_psi:
     add_vuspsi   :    238.74s CPU    245.94s WALL (   13807 calls)

     General routines
     calbec       :    379.32s CPU    392.18s WALL (   19612 calls)
     fft          :      4.58s CPU      6.51s WALL (    1768 calls)
     ffts         :     10.47s CPU     13.85s WALL (    3728 calls)
     fftw         :   1136.86s CPU   1533.59s WALL (  436128 calls)
     davcio       :      0.00s CPU      0.14s WALL (      45 calls)

     Parallel routines
     fft_scatter  :     44.37s CPU     62.96s WALL (  441624 calls)

     PWSCF        :     0h51m CPU        1h 1m WALL


   This run was terminated on:  17: 6:25  28May2020            

=------------------------------------------------------------------------------=
   JOB DONE.
=------------------------------------------------------------------------------=
