
     Program PWSCF v.6.4.1 starts on  7Jun2020 at 22:44:18 

     This program is part of the open-source Quantum ESPRESSO suite
     for quantum simulation of materials; please cite
         "P. Giannozzi et al., J. Phys.:Condens. Matter 21 395502 (2009);
         "P. Giannozzi et al., J. Phys.:Condens. Matter 29 465901 (2017);
          URL http://www.quantum-espresso.org", 
     in publications or presentations arising from this work. More details at
     http://www.quantum-espresso.org/quote

     Parallel version (MPI & OpenMP), running on       1 processor cores
     Number of MPI processes:                 1
     Threads/MPI process:                     1

     MPI processes distributed on     1 nodes
     Reading input from Al_111_H1_site_3.pw.in
Warning: card   H   1.0079   H.PBE-RRKJUS.UPF ignored
Warning: card   H 0.083333001 0.166666493 0.4624444975 ignored

     Current dimensions of program PWSCF are:
     Max number of different atomic species (ntypx) = 10
     Max number of k-points (npk) =  40000
     Max angular momentum in pseudopotentials (lmaxx) =  3

     Subspace diagonalization in iterative solution of the eigenvalue problem:
     a serial algorithm will be used

     Found symmetry operation: I + (  0.0000  0.2500  0.0000)
     This is a supercell, fractional translations are disabled
 
     G-vector sticks info
     --------------------
     sticks:   dense  smooth     PW     G-vecs:    dense   smooth      PW
     Sum        8089    6457   1711              8608181  6159111  834261
 


     bravais-lattice index     =            4
     lattice parameter (alat)  =      16.1280  a.u.
     unit-cell volume          =   53394.8108 (a.u.)^3
     number of atoms/cell      =          144
     number of atomic types    =            1
     number of electrons       =       432.00
     number of Kohn-Sham states=          259
     kinetic-energy cutoff     =      90.0000  Ry
     charge density cutoff     =     450.0000  Ry
     convergence threshold     =      1.4E-04
     mixing beta               =       0.3000
     number of iterations used =            8  local-TF  mixing
     Exchange-correlation      =  SLA  PW   PBE  PBE ( 1  4  3  4 0 0)
     nstep                     =           50


     celldm(1)=  16.128000  celldm(2)=   0.000000  celldm(3)=  14.696938
     celldm(4)=   0.000000  celldm(5)=   0.000000  celldm(6)=   0.000000

     crystal axes: (cart. coord. in units of alat)
               a(1) = (   1.000000   0.000000   0.000000 )  
               a(2) = (  -0.500000   0.866025   0.000000 )  
               a(3) = (   0.000000   0.000000  14.696938 )  

     reciprocal axes: (cart. coord. in units 2 pi/alat)
               b(1) = (  1.000000  0.577350  0.000000 )  
               b(2) = (  0.000000  1.154701  0.000000 )  
               b(3) = (  0.000000  0.000000  0.068041 )  


     PseudoPot. # 1 for Al read from file:
     ./Al.pbe-n-van.UPF
     MD5 check sum: b11ded24487aef5bc42d5c7a2e22a7b6
     Pseudo is Ultrasoft + core correction, Zval =  3.0
     Generated by new atomic code, or converted to UPF format
     Using radial grid of  893 points,  2 beta functions with: 
                l(1) =   0
                l(2) =   1
     Q(r) pseudized with  8 coefficients,  rinner =    0.900   0.900   0.900


     atomic species   valence    mass     pseudopotential
        Al             3.00    26.98000     Al( 1.00)

      6 Sym. Ops. (no inversion) found



   Cartesian axes

     site n.     atom                  positions (alat units)
         1           Al  tau(   1) = (   0.1250000   0.0721685   0.8164957  )
         2           Al  tau(   2) = (  -0.0000000   0.2886749   0.8164957  )
         3           Al  tau(   3) = (  -0.1250000   0.5051812   0.8164957  )
         4           Al  tau(   4) = (  -0.2500000   0.7216876   0.8164957  )
         5           Al  tau(   5) = (   0.3750000   0.0721685   0.8164957  )
         6           Al  tau(   6) = (   0.2500000   0.2886749   0.8164957  )
         7           Al  tau(   7) = (   0.1250000   0.5051812   0.8164957  )
         8           Al  tau(   8) = (   0.0000000   0.7216876   0.8164957  )
         9           Al  tau(   9) = (   0.6250000   0.0721685   0.8164957  )
        10           Al  tau(  10) = (   0.5000000   0.2886749   0.8164957  )
        11           Al  tau(  11) = (   0.3750000   0.5051812   0.8164957  )
        12           Al  tau(  12) = (   0.2500000   0.7216876   0.8164957  )
        13           Al  tau(  13) = (   0.8750000   0.0721685   0.8164957  )
        14           Al  tau(  14) = (   0.7500000   0.2886749   0.8164957  )
        15           Al  tau(  15) = (   0.6250000   0.5051812   0.8164957  )
        16           Al  tau(  16) = (   0.5000000   0.7216876   0.8164957  )
        17           Al  tau(  17) = (   0.0000000   0.0000000   0.0000000  )
        18           Al  tau(  18) = (  -0.1250000   0.2165064   0.0000000  )
        19           Al  tau(  19) = (  -0.2500000   0.4330127   0.0000000  )
        20           Al  tau(  20) = (  -0.3750000   0.6495191   0.0000000  )
        21           Al  tau(  21) = (   0.2500000   0.0000000   0.0000000  )
        22           Al  tau(  22) = (   0.1250000   0.2165064   0.0000000  )
        23           Al  tau(  23) = (   0.0000000   0.4330127   0.0000000  )
        24           Al  tau(  24) = (  -0.1250000   0.6495191   0.0000000  )
        25           Al  tau(  25) = (   0.5000000   0.0000000   0.0000000  )
        26           Al  tau(  26) = (   0.3750000   0.2165064   0.0000000  )
        27           Al  tau(  27) = (   0.2500000   0.4330127   0.0000000  )
        28           Al  tau(  28) = (   0.1250000   0.6495191   0.0000000  )
        29           Al  tau(  29) = (   0.7500000   0.0000000   0.0000000  )
        30           Al  tau(  30) = (   0.6250000   0.2165064   0.0000000  )
        31           Al  tau(  31) = (   0.5000000   0.4330127   0.0000000  )
        32           Al  tau(  32) = (   0.3750000   0.6495191   0.0000000  )
        33           Al  tau(  33) = (  -0.0000002   0.1443374   1.6329939  )
        34           Al  tau(  34) = (  -0.1250003   0.3608438   1.6329939  )
        35           Al  tau(  35) = (  -0.2500003   0.5773501   1.6329939  )
        36           Al  tau(  36) = (  -0.3750003   0.7938565   1.6329939  )
        37           Al  tau(  37) = (   0.2499998   0.1443374   1.6329939  )
        38           Al  tau(  38) = (   0.1249998   0.3608438   1.6329939  )
        39           Al  tau(  39) = (  -0.0000002   0.5773501   1.6329939  )
        40           Al  tau(  40) = (  -0.1250002   0.7938565   1.6329939  )
        41           Al  tau(  41) = (   0.4999998   0.1443374   1.6329939  )
        42           Al  tau(  42) = (   0.3749998   0.3608438   1.6329939  )
        43           Al  tau(  43) = (   0.2499998   0.5773501   1.6329939  )
        44           Al  tau(  44) = (   0.1249998   0.7938565   1.6329939  )
        45           Al  tau(  45) = (   0.7499998   0.1443374   1.6329939  )
        46           Al  tau(  46) = (   0.6249998   0.3608438   1.6329939  )
        47           Al  tau(  47) = (   0.4999998   0.5773501   1.6329939  )
        48           Al  tau(  48) = (   0.3749998   0.7938565   1.6329939  )
        49           Al  tau(  49) = (   0.1250000   0.0721685   3.2659855  )
        50           Al  tau(  50) = (  -0.0000000   0.2886749   3.2659855  )
        51           Al  tau(  51) = (  -0.1250000   0.5051812   3.2659855  )
        52           Al  tau(  52) = (  -0.2500000   0.7216876   3.2659855  )
        53           Al  tau(  53) = (   0.3750000   0.0721685   3.2659855  )
        54           Al  tau(  54) = (   0.2500000   0.2886749   3.2659855  )
        55           Al  tau(  55) = (   0.1250000   0.5051812   3.2659855  )
        56           Al  tau(  56) = (   0.0000000   0.7216876   3.2659855  )
        57           Al  tau(  57) = (   0.6250000   0.0721685   3.2659855  )
        58           Al  tau(  58) = (   0.5000000   0.2886749   3.2659855  )
        59           Al  tau(  59) = (   0.3750000   0.5051812   3.2659855  )
        60           Al  tau(  60) = (   0.2500000   0.7216876   3.2659855  )
        61           Al  tau(  61) = (   0.8750000   0.0721685   3.2659855  )
        62           Al  tau(  62) = (   0.7500000   0.2886749   3.2659855  )
        63           Al  tau(  63) = (   0.6250000   0.5051812   3.2659855  )
        64           Al  tau(  64) = (   0.5000000   0.7216876   3.2659855  )
        65           Al  tau(  65) = (   0.0000000   0.0000000   2.4494897  )
        66           Al  tau(  66) = (  -0.1250000   0.2165064   2.4494897  )
        67           Al  tau(  67) = (  -0.2500000   0.4330127   2.4494897  )
        68           Al  tau(  68) = (  -0.3750000   0.6495191   2.4494897  )
        69           Al  tau(  69) = (   0.2500000   0.0000000   2.4494897  )
        70           Al  tau(  70) = (   0.1250000   0.2165064   2.4494897  )
        71           Al  tau(  71) = (   0.0000000   0.4330127   2.4494897  )
        72           Al  tau(  72) = (  -0.1250000   0.6495191   2.4494897  )
        73           Al  tau(  73) = (   0.5000000   0.0000000   2.4494897  )
        74           Al  tau(  74) = (   0.3750000   0.2165064   2.4494897  )
        75           Al  tau(  75) = (   0.2500000   0.4330127   2.4494897  )
        76           Al  tau(  76) = (   0.1250000   0.6495191   2.4494897  )
        77           Al  tau(  77) = (   0.7500000   0.0000000   2.4494897  )
        78           Al  tau(  78) = (   0.6250000   0.2165064   2.4494897  )
        79           Al  tau(  79) = (   0.5000000   0.4330127   2.4494897  )
        80           Al  tau(  80) = (   0.3750000   0.6495191   2.4494897  )
        81           Al  tau(  81) = (  -0.0000002   0.1443374   4.0824837  )
        82           Al  tau(  82) = (  -0.1250003   0.3608438   4.0824837  )
        83           Al  tau(  83) = (  -0.2500003   0.5773501   4.0824837  )
        84           Al  tau(  84) = (  -0.3750003   0.7938565   4.0824837  )
        85           Al  tau(  85) = (   0.2499998   0.1443374   4.0824837  )
        86           Al  tau(  86) = (   0.1249998   0.3608438   4.0824837  )
        87           Al  tau(  87) = (  -0.0000002   0.5773501   4.0824837  )
        88           Al  tau(  88) = (  -0.1250002   0.7938565   4.0824837  )
        89           Al  tau(  89) = (   0.4999998   0.1443374   4.0824837  )
        90           Al  tau(  90) = (   0.3749998   0.3608438   4.0824837  )
        91           Al  tau(  91) = (   0.2499998   0.5773501   4.0824837  )
        92           Al  tau(  92) = (   0.1249998   0.7938565   4.0824837  )
        93           Al  tau(  93) = (   0.7499998   0.1443374   4.0824837  )
        94           Al  tau(  94) = (   0.6249998   0.3608438   4.0824837  )
        95           Al  tau(  95) = (   0.4999998   0.5773501   4.0824837  )
        96           Al  tau(  96) = (   0.3749998   0.7938565   4.0824837  )
        97           Al  tau(  97) = (   0.1250000   0.0721685   5.7154752  )
        98           Al  tau(  98) = (  -0.0000000   0.2886749   5.7154752  )
        99           Al  tau(  99) = (  -0.1250000   0.5051812   5.7154752  )
       100           Al  tau( 100) = (  -0.2500000   0.7216876   5.7154752  )
       101           Al  tau( 101) = (   0.3750000   0.0721685   5.7154752  )
       102           Al  tau( 102) = (   0.2500000   0.2886749   5.7154752  )
       103           Al  tau( 103) = (   0.1250000   0.5051812   5.7154752  )
       104           Al  tau( 104) = (   0.0000000   0.7216876   5.7154752  )
       105           Al  tau( 105) = (   0.6250000   0.0721685   5.7154752  )
       106           Al  tau( 106) = (   0.5000000   0.2886749   5.7154752  )
       107           Al  tau( 107) = (   0.3750000   0.5051812   5.7154752  )
       108           Al  tau( 108) = (   0.2500000   0.7216876   5.7154752  )
       109           Al  tau( 109) = (   0.8750000   0.0721685   5.7154752  )
       110           Al  tau( 110) = (   0.7500000   0.2886749   5.7154752  )
       111           Al  tau( 111) = (   0.6250000   0.5051812   5.7154752  )
       112           Al  tau( 112) = (   0.5000000   0.7216876   5.7154752  )
       113           Al  tau( 113) = (   0.0000000   0.0000000   4.8989795  )
       114           Al  tau( 114) = (  -0.1250000   0.2165064   4.8989795  )
       115           Al  tau( 115) = (  -0.2500000   0.4330127   4.8989795  )
       116           Al  tau( 116) = (  -0.3750000   0.6495191   4.8989795  )
       117           Al  tau( 117) = (   0.2500000   0.0000000   4.8989795  )
       118           Al  tau( 118) = (   0.1250000   0.2165064   4.8989795  )
       119           Al  tau( 119) = (   0.0000000   0.4330127   4.8989795  )
       120           Al  tau( 120) = (  -0.1250000   0.6495191   4.8989795  )
       121           Al  tau( 121) = (   0.5000000   0.0000000   4.8989795  )
       122           Al  tau( 122) = (   0.3750000   0.2165064   4.8989795  )
       123           Al  tau( 123) = (   0.2500000   0.4330127   4.8989795  )
       124           Al  tau( 124) = (   0.1250000   0.6495191   4.8989795  )
       125           Al  tau( 125) = (   0.7500000   0.0000000   4.8989795  )
       126           Al  tau( 126) = (   0.6250000   0.2165064   4.8989795  )
       127           Al  tau( 127) = (   0.5000000   0.4330127   4.8989795  )
       128           Al  tau( 128) = (   0.3750000   0.6495191   4.8989795  )
       129           Al  tau( 129) = (  -0.0000002   0.1443374   6.5319734  )
       130           Al  tau( 130) = (  -0.1250003   0.3608438   6.5319734  )
       131           Al  tau( 131) = (  -0.2500003   0.5773501   6.5319734  )
       132           Al  tau( 132) = (  -0.3750003   0.7938565   6.5319734  )
       133           Al  tau( 133) = (   0.2499998   0.1443374   6.5319734  )
       134           Al  tau( 134) = (   0.1249998   0.3608438   6.5319734  )
       135           Al  tau( 135) = (  -0.0000002   0.5773501   6.5319734  )
       136           Al  tau( 136) = (  -0.1250002   0.7938565   6.5319734  )
       137           Al  tau( 137) = (   0.4999998   0.1443374   6.5319734  )
       138           Al  tau( 138) = (   0.3749998   0.3608438   6.5319734  )
       139           Al  tau( 139) = (   0.2499998   0.5773501   6.5319734  )
       140           Al  tau( 140) = (   0.1249998   0.7938565   6.5319734  )
       141           Al  tau( 141) = (   0.7499998   0.1443374   6.5319734  )
       142           Al  tau( 142) = (   0.6249998   0.3608438   6.5319734  )
       143           Al  tau( 143) = (   0.4999998   0.5773501   6.5319734  )
       144           Al  tau( 144) = (   0.3749998   0.7938565   6.5319734  )

     number of k points=    61  Marzari-Vanderbilt smearing, width (Ry)=  0.0250
                       cart. coord. in units 2pi/alat
        k(    1) = (   0.0000000   0.0000000   0.0000000), wk =   0.0034722
        k(    2) = (   0.0000000   0.0481125   0.0000000), wk =   0.0208333
        k(    3) = (   0.0000000   0.0962250   0.0000000), wk =   0.0208333
        k(    4) = (   0.0000000   0.1443376   0.0000000), wk =   0.0208333
        k(    5) = (   0.0000000   0.1924501   0.0000000), wk =   0.0208333
        k(    6) = (   0.0000000   0.2405626   0.0000000), wk =   0.0208333
        k(    7) = (   0.0000000   0.2886751   0.0000000), wk =   0.0208333
        k(    8) = (   0.0000000   0.3367877   0.0000000), wk =   0.0208333
        k(    9) = (   0.0000000   0.3849002   0.0000000), wk =   0.0208333
        k(   10) = (   0.0000000   0.4330127   0.0000000), wk =   0.0208333
        k(   11) = (   0.0000000   0.4811252   0.0000000), wk =   0.0208333
        k(   12) = (   0.0000000   0.5292377   0.0000000), wk =   0.0208333
        k(   13) = (   0.0000000  -0.5773503   0.0000000), wk =   0.0104167
        k(   14) = (   0.0416667   0.0721688   0.0000000), wk =   0.0208333
        k(   15) = (   0.0416667   0.1202813   0.0000000), wk =   0.0416667
        k(   16) = (   0.0416667   0.1683938   0.0000000), wk =   0.0416667
        k(   17) = (   0.0416667   0.2165064   0.0000000), wk =   0.0416667
        k(   18) = (   0.0416667   0.2646189   0.0000000), wk =   0.0416667
        k(   19) = (   0.0416667   0.3127314   0.0000000), wk =   0.0416667
        k(   20) = (   0.0416667   0.3608439   0.0000000), wk =   0.0416667
        k(   21) = (   0.0416667   0.4089564   0.0000000), wk =   0.0416667
        k(   22) = (   0.0416667   0.4570690   0.0000000), wk =   0.0416667
        k(   23) = (   0.0416667   0.5051815   0.0000000), wk =   0.0416667
        k(   24) = (   0.0416667   0.5532940   0.0000000), wk =   0.0416667
        k(   25) = (   0.0833333   0.1443376   0.0000000), wk =   0.0208333
        k(   26) = (   0.0833333   0.1924501   0.0000000), wk =   0.0416667
        k(   27) = (   0.0833333   0.2405626   0.0000000), wk =   0.0416667
        k(   28) = (   0.0833333   0.2886751   0.0000000), wk =   0.0416667
        k(   29) = (   0.0833333   0.3367877   0.0000000), wk =   0.0416667
        k(   30) = (   0.0833333   0.3849002   0.0000000), wk =   0.0416667
        k(   31) = (   0.0833333   0.4330127   0.0000000), wk =   0.0416667
        k(   32) = (   0.0833333   0.4811252   0.0000000), wk =   0.0416667
        k(   33) = (   0.0833333   0.5292377   0.0000000), wk =   0.0416667
        k(   34) = (   0.0833333   0.5773503   0.0000000), wk =   0.0208333
        k(   35) = (   0.1250000   0.2165064   0.0000000), wk =   0.0208333
        k(   36) = (   0.1250000   0.2646189   0.0000000), wk =   0.0416667
        k(   37) = (   0.1250000   0.3127314   0.0000000), wk =   0.0416667
        k(   38) = (   0.1250000   0.3608439   0.0000000), wk =   0.0416667
        k(   39) = (   0.1250000   0.4089564   0.0000000), wk =   0.0416667
        k(   40) = (   0.1250000   0.4570690   0.0000000), wk =   0.0416667
        k(   41) = (   0.1250000   0.5051815   0.0000000), wk =   0.0416667
        k(   42) = (   0.1250000   0.5532940   0.0000000), wk =   0.0416667
        k(   43) = (   0.1666667   0.2886751   0.0000000), wk =   0.0208333
        k(   44) = (   0.1666667   0.3367877   0.0000000), wk =   0.0416667
        k(   45) = (   0.1666667   0.3849002   0.0000000), wk =   0.0416667
        k(   46) = (   0.1666667   0.4330127   0.0000000), wk =   0.0416667
        k(   47) = (   0.1666667   0.4811252   0.0000000), wk =   0.0416667
        k(   48) = (   0.1666667   0.5292377   0.0000000), wk =   0.0416667
        k(   49) = (   0.1666667   0.5773503   0.0000000), wk =   0.0208333
        k(   50) = (   0.2083333   0.3608439   0.0000000), wk =   0.0208333
        k(   51) = (   0.2083333   0.4089564   0.0000000), wk =   0.0416667
        k(   52) = (   0.2083333   0.4570690   0.0000000), wk =   0.0416667
        k(   53) = (   0.2083333   0.5051815   0.0000000), wk =   0.0416667
        k(   54) = (   0.2083333   0.5532940   0.0000000), wk =   0.0416667
        k(   55) = (   0.2500000   0.4330127   0.0000000), wk =   0.0208333
        k(   56) = (   0.2500000   0.4811252   0.0000000), wk =   0.0416667
        k(   57) = (   0.2500000   0.5292377   0.0000000), wk =   0.0416667
        k(   58) = (   0.2500000   0.5773503   0.0000000), wk =   0.0208333
        k(   59) = (   0.2916667   0.5051815   0.0000000), wk =   0.0208333
        k(   60) = (   0.2916667   0.5532940   0.0000000), wk =   0.0416667
        k(   61) = (   0.3333333   0.5773503   0.0000000), wk =   0.0069444

     Dense  grid:  8608181 G-vectors     FFT dimensions: ( 120, 120,1620)

     Smooth grid:  6159111 G-vectors     FFT dimensions: ( 100, 100,1440)

     Estimated max dynamical RAM per process >     249.27 GB

     Initial potential from superposition of free atoms

     starting charge  431.64498, renormalised to  432.00000

     negative rho (up, down):  3.913E-03 0.000E+00
     Starting wfcs are  576 randomized atomic wfcs
