
     Program PWSCF v.6.4.1 starts on  7Jun2020 at  6: 8:45 

     This program is part of the open-source Quantum ESPRESSO suite
     for quantum simulation of materials; please cite
         "P. Giannozzi et al., J. Phys.:Condens. Matter 21 395502 (2009);
         "P. Giannozzi et al., J. Phys.:Condens. Matter 29 465901 (2017);
          URL http://www.quantum-espresso.org", 
     in publications or presentations arising from this work. More details at
     http://www.quantum-espresso.org/quote

     Parallel version (MPI), running on     1 processors

     MPI processes distributed on     1 nodes
     Reading input from Al_111_H23_br_site_0.pw.in

     Current dimensions of program PWSCF are:
     Max number of different atomic species (ntypx) = 10
     Max number of k-points (npk) =  40000
     Max angular momentum in pseudopotentials (lmaxx) =  3
               file H.pbe-rrkjus.UPF: wavefunction(s)  1S renormalized

     Subspace diagonalization in iterative solution of the eigenvalue problem:
     a serial algorithm will be used


     G-vector sticks info
     --------------------
     sticks:   dense  smooth     PW     G-vecs:    dense   smooth      PW
     Sum         301     241     85                61593    44015    8065



     bravais-lattice index     =            4
     lattice parameter (alat)  =       5.3760  a.u.
     unit-cell volume          =    1977.5856 (a.u.)^3
     number of atoms/cell      =           10
     number of atomic types    =            2
     number of electrons       =        28.00
     number of Kohn-Sham states=           18
     kinetic-energy cutoff     =      30.0000  Ry
     charge density cutoff     =     150.0000  Ry
     convergence threshold     =      9.0E-06
     mixing beta               =       0.3000
     number of iterations used =            8  local-TF  mixing
     Exchange-correlation      =  SLA  PW   PBE  PBE ( 1  4  3  4 0 0)
     nstep                     =           50


     celldm(1)=   5.376000  celldm(2)=   0.000000  celldm(3)=  14.696938
     celldm(4)=   0.000000  celldm(5)=   0.000000  celldm(6)=   0.000000

     crystal axes: (cart. coord. in units of alat)
               a(1) = (   1.000000   0.000000   0.000000 )  
               a(2) = (  -0.500000   0.866025   0.000000 )  
               a(3) = (   0.000000   0.000000  14.696938 )  

     reciprocal axes: (cart. coord. in units 2 pi/alat)
               b(1) = (  1.000000  0.577350 -0.000000 )  
               b(2) = (  0.000000  1.154701  0.000000 )  
               b(3) = (  0.000000 -0.000000  0.068041 )  


     PseudoPot. # 1 for Al read from file:
     ./Al.pbe-n-van.UPF
     MD5 check sum: b11ded24487aef5bc42d5c7a2e22a7b6
     Pseudo is Ultrasoft + core correction, Zval =  3.0
     Generated by new atomic code, or converted to UPF format
     Using radial grid of  893 points,  2 beta functions with: 
                l(1) =   0
                l(2) =   1
     Q(r) pseudized with  8 coefficients,  rinner =    0.900   0.900   0.900


     PseudoPot. # 2 for H  read from file:
     ./H.pbe-rrkjus.UPF
     MD5 check sum: 0433647300470310da31d564c103eed6
     Pseudo is Ultrasoft, Zval =  1.0
     Generated by new atomic code, or converted to UPF format
     Using radial grid of 1061 points,  2 beta functions with: 
                l(1) =   0
                l(2) =   0
     Q(r) pseudized with 0 coefficients 


     atomic species   valence    mass     pseudopotential
        Al             3.00    26.98000     Al( 1.00)
        H              1.00     1.00790     H ( 1.00)

      2 Sym. Ops. (no inversion) found



   Cartesian axes

     site n.     atom                  positions (alat units)
         1           Al  tau(   1) = (   0.0000000   0.5773502   1.6329930  )
         2           Al  tau(   2) = (   0.4999999   0.2886751   0.8164965  )
         3           Al  tau(   3) = (   0.0000000   0.0000000   0.0000000  )
         4           Al  tau(   4) = (   0.0000000   0.5773502   4.0824827  )
         5           Al  tau(   5) = (   0.4999999   0.2886751   3.2659862  )
         6           Al  tau(   6) = (   0.0000000   0.0000000   2.4494897  )
         7           Al  tau(   7) = (   0.0000000   0.5773502   6.5319725  )
         8           Al  tau(   8) = (   0.4999999   0.2886751   5.7154760  )
         9           Al  tau(   9) = (   0.0000000   0.0000000   4.8989795  )
        10           H   tau(  10) = (   0.7500000   0.1443376   6.5319725  )

     number of k points=    73  Marzari-Vanderbilt smearing, width (Ry)=  0.0250
                       cart. coord. in units 2pi/alat
        k(    1) = (   0.0000000   0.0000000   0.0000000), wk =   0.0078125
        k(    2) = (   0.0000000   0.0721688   0.0000000), wk =   0.0312500
        k(    3) = (   0.0000000   0.1443376   0.0000000), wk =   0.0312500
        k(    4) = (   0.0000000   0.2165064   0.0000000), wk =   0.0312500
        k(    5) = (   0.0000000   0.2886751   0.0000000), wk =   0.0312500
        k(    6) = (   0.0000000   0.3608439   0.0000000), wk =   0.0312500
        k(    7) = (   0.0000000   0.4330127   0.0000000), wk =   0.0312500
        k(    8) = (   0.0000000   0.5051815   0.0000000), wk =   0.0312500
        k(    9) = (   0.0000000  -0.5773503   0.0000000), wk =   0.0156250
        k(   10) = (   0.0625000   0.1082532   0.0000000), wk =   0.0156250
        k(   11) = (   0.0625000   0.1804220   0.0000000), wk =   0.0312500
        k(   12) = (   0.0625000   0.2525907   0.0000000), wk =   0.0312500
        k(   13) = (   0.0625000   0.3247595   0.0000000), wk =   0.0312500
        k(   14) = (   0.0625000   0.3969283   0.0000000), wk =   0.0312500
        k(   15) = (   0.0625000   0.4690971   0.0000000), wk =   0.0312500
        k(   16) = (   0.0625000   0.5412659   0.0000000), wk =   0.0312500
        k(   17) = (   0.1250000   0.2165064   0.0000000), wk =   0.0156250
        k(   18) = (   0.1250000   0.2886751   0.0000000), wk =   0.0312500
        k(   19) = (   0.1250000   0.3608439   0.0000000), wk =   0.0312500
        k(   20) = (   0.1250000   0.4330127   0.0000000), wk =   0.0312500
        k(   21) = (   0.1250000   0.5051815   0.0000000), wk =   0.0312500
        k(   22) = (   0.1250000   0.5773503   0.0000000), wk =   0.0312500
        k(   23) = (   0.1875000   0.3247595   0.0000000), wk =   0.0156250
        k(   24) = (   0.1875000   0.3969283   0.0000000), wk =   0.0312500
        k(   25) = (   0.1875000   0.4690971   0.0000000), wk =   0.0312500
        k(   26) = (   0.1875000   0.5412659   0.0000000), wk =   0.0312500
        k(   27) = (   0.2500000   0.4330127   0.0000000), wk =   0.0156250
        k(   28) = (   0.2500000   0.5051815   0.0000000), wk =   0.0312500
        k(   29) = (   0.2500000   0.5773503   0.0000000), wk =   0.0312500
        k(   30) = (   0.3125000   0.5412659   0.0000000), wk =   0.0156250
        k(   31) = (  -0.0625000   0.0360844   0.0000000), wk =   0.0156250
        k(   32) = (  -0.1250000   0.0721688   0.0000000), wk =   0.0156250
        k(   33) = (  -0.1875000   0.1082532   0.0000000), wk =   0.0156250
        k(   34) = (  -0.2500000   0.1443376   0.0000000), wk =   0.0156250
        k(   35) = (  -0.3125000   0.1804220   0.0000000), wk =   0.0156250
        k(   36) = (  -0.3750000   0.2165064   0.0000000), wk =   0.0156250
        k(   37) = (  -0.4375000   0.2525907   0.0000000), wk =   0.0156250
        k(   38) = (   0.5000000  -0.2886751   0.0000000), wk =   0.0078125
        k(   39) = (  -0.0625000   0.1082532   0.0000000), wk =   0.0312500
        k(   40) = (  -0.0625000   0.1804220   0.0000000), wk =   0.0312500
        k(   41) = (  -0.1250000   0.1443376   0.0000000), wk =   0.0312500
        k(   42) = (  -0.0625000   0.2525907   0.0000000), wk =   0.0312500
        k(   43) = (  -0.1875000   0.1804220   0.0000000), wk =   0.0312500
        k(   44) = (  -0.0625000   0.3247595   0.0000000), wk =   0.0312500
        k(   45) = (  -0.2500000   0.2165064   0.0000000), wk =   0.0312500
        k(   46) = (  -0.0625000   0.3969283   0.0000000), wk =   0.0312500
        k(   47) = (  -0.3125000   0.2525907   0.0000000), wk =   0.0312500
        k(   48) = (  -0.0625000   0.4690971   0.0000000), wk =   0.0312500
        k(   49) = (  -0.3750000   0.2886751   0.0000000), wk =   0.0312500
        k(   50) = (  -0.0625000   0.5412659   0.0000000), wk =   0.0312500
        k(   51) = (  -0.4375000   0.3247595   0.0000000), wk =   0.0312500
        k(   52) = (  -0.1250000   0.2165064   0.0000000), wk =   0.0312500
        k(   53) = (  -0.1250000   0.2886751   0.0000000), wk =   0.0312500
        k(   54) = (  -0.1875000   0.2525907   0.0000000), wk =   0.0312500
        k(   55) = (  -0.1250000   0.3608439   0.0000000), wk =   0.0312500
        k(   56) = (  -0.2500000   0.2886751   0.0000000), wk =   0.0312500
        k(   57) = (  -0.1250000   0.4330127   0.0000000), wk =   0.0312500
        k(   58) = (  -0.3125000   0.3247595   0.0000000), wk =   0.0312500
        k(   59) = (  -0.1250000   0.5051815   0.0000000), wk =   0.0312500
        k(   60) = (  -0.3750000   0.3608439   0.0000000), wk =   0.0312500
        k(   61) = (  -0.4375000   0.3969283   0.0000000), wk =   0.0156250
        k(   62) = (  -0.1875000   0.3247595   0.0000000), wk =   0.0312500
        k(   63) = (  -0.1875000   0.3969283   0.0000000), wk =   0.0312500
        k(   64) = (  -0.2500000   0.3608439   0.0000000), wk =   0.0312500
        k(   65) = (  -0.1875000   0.4690971   0.0000000), wk =   0.0312500
        k(   66) = (  -0.3125000   0.3969283   0.0000000), wk =   0.0312500
        k(   67) = (  -0.1875000   0.5412659   0.0000000), wk =   0.0312500
        k(   68) = (  -0.3750000   0.4330127   0.0000000), wk =   0.0312500
        k(   69) = (  -0.2500000   0.4330127   0.0000000), wk =   0.0312500
        k(   70) = (  -0.2500000   0.5051815   0.0000000), wk =   0.0312500
        k(   71) = (  -0.3125000   0.4690971   0.0000000), wk =   0.0312500
        k(   72) = (  -0.3750000   0.5051815   0.0000000), wk =   0.0156250
        k(   73) = (  -0.3125000   0.5412659   0.0000000), wk =   0.0312500

     Dense  grid:    61593 G-vectors     FFT dimensions: (  24,  24, 320)

     Smooth grid:    44015 G-vectors     FFT dimensions: (  20,  20, 288)

     Estimated max dynamical RAM per process >     197.62 MB

     Initial potential from superposition of free atoms

     starting charge   27.88161, renormalised to   28.00000

     negative rho (up, down):  9.409E-05 0.000E+00
     Starting wfcs are   37 randomized atomic wfcs

     total cpu time spent up to now is       32.2 secs

     Self-consistent Calculation

     iteration #  1     ecut=    30.00 Ry     beta= 0.30
     Davidson diagonalization with overlap
     ethr =  1.00E-02,  avg # of iterations =  4.9

     negative rho (up, down):  2.468E-03 0.000E+00

     total cpu time spent up to now is      114.2 secs

     total energy              =    -114.85960314 Ry
     Harris-Foulkes estimate   =    -118.48519669 Ry
     estimated scf accuracy    <     569.16758553 Ry

     iteration #  2     ecut=    30.00 Ry     beta= 0.30
     Davidson diagonalization with overlap
     ethr =  1.00E-02,  avg # of iterations =  2.2

     negative rho (up, down):  4.605E-02 0.000E+00

     total cpu time spent up to now is      152.2 secs

     total energy              =    -110.72934329 Ry
     Harris-Foulkes estimate   =    -115.48113752 Ry
     estimated scf accuracy    <     259.81359500 Ry

     iteration #  3     ecut=    30.00 Ry     beta= 0.30
     Davidson diagonalization with overlap
     ethr =  1.00E-02,  avg # of iterations =  5.2

     negative rho (up, down):  4.263E-02 0.000E+00

     total cpu time spent up to now is      213.5 secs

     total energy              =    -113.07068881 Ry
     Harris-Foulkes estimate   =    -113.12234803 Ry
     estimated scf accuracy    <       2.81053683 Ry

     iteration #  4     ecut=    30.00 Ry     beta= 0.30
     Davidson diagonalization with overlap
     ethr =  1.00E-02,  avg # of iterations =  1.5

     negative rho (up, down):  3.181E-02 0.000E+00

     total cpu time spent up to now is      251.0 secs

     total energy              =    -113.09001364 Ry
     Harris-Foulkes estimate   =    -113.13881939 Ry
     estimated scf accuracy    <       1.12417008 Ry

     iteration #  5     ecut=    30.00 Ry     beta= 0.30
     Davidson diagonalization with overlap
     ethr =  4.01E-03,  avg # of iterations =  2.5

     negative rho (up, down):  3.160E-02 0.000E+00

     total cpu time spent up to now is      290.1 secs

     total energy              =    -113.15437136 Ry
     Harris-Foulkes estimate   =    -113.15931990 Ry
     estimated scf accuracy    <       0.83402415 Ry

     iteration #  6     ecut=    30.00 Ry     beta= 0.30
     Davidson diagonalization with overlap
     ethr =  2.98E-03,  avg # of iterations =  1.1

     negative rho (up, down):  3.337E-02 0.000E+00

     total cpu time spent up to now is      326.3 secs

     total energy              =    -113.18092869 Ry
     Harris-Foulkes estimate   =    -113.15814075 Ry
     estimated scf accuracy    <       0.69213524 Ry

     iteration #  7     ecut=    30.00 Ry     beta= 0.30
     Davidson diagonalization with overlap
     ethr =  2.47E-03,  avg # of iterations =  1.7

     negative rho (up, down):  2.663E-02 0.000E+00

     total cpu time spent up to now is      363.9 secs

     total energy              =    -113.06621707 Ry
     Harris-Foulkes estimate   =    -113.20634547 Ry
     estimated scf accuracy    <       4.30142384 Ry

     iteration #  8     ecut=    30.00 Ry     beta= 0.30
     Davidson diagonalization with overlap
     ethr =  2.47E-03,  avg # of iterations =  1.5

     negative rho (up, down):  2.198E-02 0.000E+00

     total cpu time spent up to now is      400.6 secs

     total energy              =    -113.15842980 Ry
     Harris-Foulkes estimate   =    -113.14463148 Ry
     estimated scf accuracy    <       0.38323025 Ry

     iteration #  9     ecut=    30.00 Ry     beta= 0.30
     Davidson diagonalization with overlap
     ethr =  1.37E-03,  avg # of iterations =  2.8

     negative rho (up, down):  2.030E-02 0.000E+00

     total cpu time spent up to now is      439.4 secs

     total energy              =    -113.17293343 Ry
     Harris-Foulkes estimate   =    -113.20487202 Ry
     estimated scf accuracy    <       6.83114932 Ry

     iteration # 10     ecut=    30.00 Ry     beta= 0.30
     Davidson diagonalization with overlap
     ethr =  1.37E-03,  avg # of iterations =  1.0

     negative rho (up, down):  1.483E-02 0.000E+00

     total cpu time spent up to now is      473.4 secs

     total energy              =    -113.09178722 Ry
     Harris-Foulkes estimate   =    -113.17684354 Ry
     estimated scf accuracy    <       4.19248150 Ry

     iteration # 11     ecut=    30.00 Ry     beta= 0.30
     Davidson diagonalization with overlap
     ethr =  1.37E-03,  avg # of iterations =  2.1

     negative rho (up, down):  1.328E-02 0.000E+00

     total cpu time spent up to now is      509.9 secs

     total energy              =    -113.13975030 Ry
     Harris-Foulkes estimate   =    -113.13894371 Ry
     estimated scf accuracy    <       0.01258305 Ry

     iteration # 12     ecut=    30.00 Ry     beta= 0.30
     Davidson diagonalization with overlap
     ethr =  4.49E-05,  avg # of iterations =  5.9

     negative rho (up, down):  1.087E-02 0.000E+00

     total cpu time spent up to now is      565.6 secs

     total energy              =    -113.14399690 Ry
     Harris-Foulkes estimate   =    -113.14433069 Ry
     estimated scf accuracy    <       0.47062183 Ry

     iteration # 13     ecut=    30.00 Ry     beta= 0.30
     Davidson diagonalization with overlap
     ethr =  4.49E-05,  avg # of iterations =  1.5

     negative rho (up, down):  6.812E-03 0.000E+00

     total cpu time spent up to now is      601.7 secs

     total energy              =    -113.13335550 Ry
     Harris-Foulkes estimate   =    -113.14411766 Ry
     estimated scf accuracy    <       0.56692685 Ry

     iteration # 14     ecut=    30.00 Ry     beta= 0.30
     Davidson diagonalization with overlap
     ethr =  4.49E-05,  avg # of iterations =  4.2

     negative rho (up, down):  5.312E-03 0.000E+00

     total cpu time spent up to now is      649.1 secs

     total energy              =    -113.13761716 Ry
     Harris-Foulkes estimate   =    -113.13820183 Ry
     estimated scf accuracy    <       0.02855682 Ry

     iteration # 15     ecut=    30.00 Ry     beta= 0.30
     Davidson diagonalization with overlap
     ethr =  4.49E-05,  avg # of iterations =  1.5

     negative rho (up, down):  6.208E-03 0.000E+00

     total cpu time spent up to now is      685.6 secs

     total energy              =    -113.13821695 Ry
     Harris-Foulkes estimate   =    -113.13814888 Ry
     estimated scf accuracy    <       0.01600814 Ry

     iteration # 16     ecut=    30.00 Ry     beta= 0.30
     Davidson diagonalization with overlap
     ethr =  4.49E-05,  avg # of iterations =  1.0

     negative rho (up, down):  1.466E-03 0.000E+00

     total cpu time spent up to now is      721.5 secs

     total energy              =    -113.13751206 Ry
     Harris-Foulkes estimate   =    -113.13824720 Ry
     estimated scf accuracy    <       0.01611563 Ry

     iteration # 17     ecut=    30.00 Ry     beta= 0.30
     Davidson diagonalization with overlap
     ethr =  4.49E-05,  avg # of iterations =  1.6

     negative rho (up, down):  9.098E-04 0.000E+00

     total cpu time spent up to now is      758.3 secs

     total energy              =    -113.13779824 Ry
     Harris-Foulkes estimate   =    -113.13780799 Ry
     estimated scf accuracy    <       0.00133856 Ry

     iteration # 18     ecut=    30.00 Ry     beta= 0.30
     Davidson diagonalization with overlap
     ethr =  4.78E-06,  avg # of iterations =  3.6

     negative rho (up, down):  1.087E-04 0.000E+00

     total cpu time spent up to now is      798.8 secs

     total energy              =    -113.13769489 Ry
     Harris-Foulkes estimate   =    -113.13783071 Ry
     estimated scf accuracy    <       0.00085524 Ry

     iteration # 19     ecut=    30.00 Ry     beta= 0.30
     Davidson diagonalization with overlap
     ethr =  3.05E-06,  avg # of iterations =  3.2

     negative rho (up, down):  1.792E-03 0.000E+00

     total cpu time spent up to now is      840.0 secs

     total energy              =    -113.13768321 Ry
     Harris-Foulkes estimate   =    -113.13780369 Ry
     estimated scf accuracy    <       0.00214395 Ry

     iteration # 20     ecut=    30.00 Ry     beta= 0.30
     Davidson diagonalization with overlap
     ethr =  3.05E-06,  avg # of iterations =  2.8

     negative rho (up, down):  8.563E-04 0.000E+00

     total cpu time spent up to now is      880.4 secs

     total energy              =    -113.13769952 Ry
     Harris-Foulkes estimate   =    -113.13776784 Ry
     estimated scf accuracy    <       0.00052393 Ry

     iteration # 21     ecut=    30.00 Ry     beta= 0.30
     Davidson diagonalization with overlap
     ethr =  1.87E-06,  avg # of iterations =  2.6

     negative rho (up, down):  2.252E-03 0.000E+00

     total cpu time spent up to now is      919.0 secs

     total energy              =    -113.13770456 Ry
     Harris-Foulkes estimate   =    -113.13773216 Ry
     estimated scf accuracy    <       0.00106218 Ry

     iteration # 22     ecut=    30.00 Ry     beta= 0.30
     Davidson diagonalization with overlap
     ethr =  1.87E-06,  avg # of iterations =  2.3

     negative rho (up, down):  3.380E-03 0.000E+00

     total cpu time spent up to now is      958.2 secs

     total energy              =    -113.13765979 Ry
     Harris-Foulkes estimate   =    -113.13772012 Ry
     estimated scf accuracy    <       0.00076482 Ry

     iteration # 23     ecut=    30.00 Ry     beta= 0.30
     Davidson diagonalization with overlap
     ethr =  1.87E-06,  avg # of iterations =  2.5

     negative rho (up, down):  1.896E-03 0.000E+00

     total cpu time spent up to now is      997.3 secs

     total energy              =    -113.13767017 Ry
     Harris-Foulkes estimate   =    -113.13767164 Ry
     estimated scf accuracy    <       0.00029451 Ry

     iteration # 24     ecut=    30.00 Ry     beta= 0.30
     Davidson diagonalization with overlap
     ethr =  1.05E-06,  avg # of iterations =  2.7

     negative rho (up, down):  1.084E-03 0.000E+00

     total cpu time spent up to now is     1036.7 secs

     total energy              =    -113.13767411 Ry
     Harris-Foulkes estimate   =    -113.13767953 Ry
     estimated scf accuracy    <       0.00008384 Ry

     iteration # 25     ecut=    30.00 Ry     beta= 0.30
     Davidson diagonalization with overlap
     ethr =  2.99E-07,  avg # of iterations =  3.7

     negative rho (up, down):  1.782E-03 0.000E+00

     total cpu time spent up to now is     1084.3 secs

     total energy              =    -113.13766961 Ry
     Harris-Foulkes estimate   =    -113.13770153 Ry
     estimated scf accuracy    <       0.00074861 Ry

     iteration # 26     ecut=    30.00 Ry     beta= 0.30
     Davidson diagonalization with overlap
     ethr =  2.99E-07,  avg # of iterations =  3.2

     negative rho (up, down):  7.355E-04 0.000E+00

     total cpu time spent up to now is     1127.3 secs

     total energy              =    -113.13768875 Ry
     Harris-Foulkes estimate   =    -113.13768303 Ry
     estimated scf accuracy    <       0.00003397 Ry

     iteration # 27     ecut=    30.00 Ry     beta= 0.30
     Davidson diagonalization with overlap
     ethr =  1.21E-07,  avg # of iterations =  2.5

     negative rho (up, down):  2.988E-04 0.000E+00

     total cpu time spent up to now is     1167.1 secs

     total energy              =    -113.13768387 Ry
     Harris-Foulkes estimate   =    -113.13768975 Ry
     estimated scf accuracy    <       0.00008932 Ry

     iteration # 28     ecut=    30.00 Ry     beta= 0.30
     Davidson diagonalization with overlap
     c_bands:  1 eigenvalues not converged
     ethr =  1.21E-07,  avg # of iterations =  2.5

     negative rho (up, down):  2.666E-05 0.000E+00

     total cpu time spent up to now is     1204.0 secs

     End of self-consistent calculation

          k = 0.0000 0.0000 0.0000 (  5537 PWs)   bands (ev):

   -10.3212  -9.0560  -8.7486  -8.2547  -7.5878  -6.7525  -5.7612  -4.6233
    -3.3327  -2.0932  -0.5585   0.8992   2.2069   3.4762   4.8493   5.7879
     5.8216   6.2803

          k = 0.0000 0.0722 0.0000 (  5524 PWs)   bands (ev):

   -10.2343  -8.9606  -8.6536  -8.1601  -7.4937  -6.6591  -5.6684  -4.5311
    -3.2409  -2.0041  -0.4688   0.9862   2.2817   3.5391   4.9169   5.8798
     5.9097   6.3381

          k = 0.0000 0.1443 0.0000 (  5500 PWs)   bands (ev):

    -9.9756  -8.6749  -8.3689  -7.8769  -7.2121  -6.3794  -5.3908  -4.2556
    -2.9670  -1.7380  -0.2015   1.2448   2.4916   3.7016   5.0862   6.1278
     6.1605   6.4532

          k = 0.0000 0.2165 0.0000 (  5496 PWs)   bands (ev):

    -9.5516  -8.1999  -7.8959  -7.4063  -6.7446  -5.9153  -4.9302  -3.7990
    -2.5143  -1.2966   0.2397   1.6616   2.7371   3.8359   5.1732   6.1192
     6.4181   6.5984

          k = 0.0000 0.2887 0.0000 (  5490 PWs)   bands (ev):

    -8.9759  -7.5376  -7.2365  -6.7510  -6.0939  -5.2699  -4.2910  -3.1671
    -1.8913  -0.6860   0.8399   2.0990   2.5861   3.7186   4.3740   4.5933
     4.9539   5.3346

          k = 0.0000 0.3608 0.0000 (  5482 PWs)   bands (ev):

    -8.2758  -6.6907  -6.3941  -5.9147  -5.2648  -4.4494  -3.4817  -2.3739
    -1.1265   0.0550   1.2538   1.5569   2.0332   2.4509   2.9832   3.2969
     3.6433   4.2094

          k = 0.0000 0.4330 0.0000 (  5488 PWs)   bands (ev):

    -7.5112  -5.6631  -5.3734  -4.9039  -4.2673  -3.4705  -2.5328  -1.4891
    -0.4830   0.0474   0.1930   0.5788   1.1041   1.3481   1.7500   2.4756
     2.8062   3.3841

          k = 0.0000 0.5052 0.0000 (  5504 PWs)   bands (ev):

    -6.8249  -4.4600  -4.1833  -3.7363  -3.1381  -2.4260  -1.7383  -1.5084
    -1.2988  -1.0404  -0.8035  -0.2299   0.3944   0.8964   1.3620   1.7798
     2.3467   2.8312

          k = 0.0000-0.5774 0.0000 (  5484 PWs)   bands (ev):

    -6.5185  -3.1210  -3.0851  -2.9285  -2.8234  -2.5887  -2.3059  -2.0587
    -1.7621  -1.4252  -1.0937  -0.5333   0.2603   0.5410   1.3038   1.4620
     2.4898   2.6894

          k = 0.0625 0.1083 0.0000 (  5511 PWs)   bands (ev):

   -10.0609  -8.7701  -8.4638  -7.9712  -7.3059  -6.4726  -5.4833  -4.3474
    -3.0581  -1.8265  -0.2903   1.1589   2.4230   3.6529   5.0410   6.0597
     6.0783   6.4383

          k = 0.0625 0.1804 0.0000 (  5519 PWs)   bands (ev):

    -9.7192  -8.3897  -8.0849  -7.5943  -6.9314  -6.1007  -5.1142  -3.9813
    -2.6946  -1.4726   0.0643   1.4977   2.6649   3.8230   5.2127   6.2681
     6.4127   6.6183

          k = 0.0625 0.2526 0.0000 (  5496 PWs)   bands (ev):

    -9.2191  -7.8210  -7.5187  -7.0314  -6.3722  -5.5458  -4.5641  -3.4367
    -2.1561  -0.9457   0.5877   1.9673   2.7835   3.8948   5.0644   5.5794
     5.7205   5.9857

          k = 0.0625 0.3248 0.0000 (  5488 PWs)   bands (ev):

    -8.5802  -7.0664  -6.7678  -6.2855  -5.6322  -4.8126  -3.8390  -2.7221
    -1.4566  -0.2588   1.2386   1.9584   2.5858   3.1935   3.6695   3.9525
     4.4769   4.6013

          k = 0.0625 0.3969 0.0000 (  5490 PWs)   bands (ev):

    -7.8430  -6.1291  -5.8360  -5.3615  -4.7177  -3.9102  -2.9537  -1.8648
    -0.6670   0.3935   0.8929   1.1721   1.5145   1.9603   2.4666   2.7198
     3.3935   3.8261

          k = 0.0625 0.4691 0.0000 (  5501 PWs)   bands (ev):

    -7.0986  -5.0134  -4.7294  -4.2690  -3.6454  -2.8708  -1.9834  -1.1062
    -0.6840  -0.4536  -0.3657   0.1636   0.8431   1.1273   1.7206   1.8609
     2.6298   3.3510

          k = 0.0625 0.5413 0.0000 (  5499 PWs)   bands (ev):

    -6.5606  -3.7269  -3.4654  -3.0526  -2.5537  -2.2820  -2.0524  -1.8596
    -1.5794  -1.2615  -0.9569  -0.3839   0.3100   0.8264   1.1360   1.9526
     2.1749   3.0292

          k = 0.1250 0.2165 0.0000 (  5513 PWs)   bands (ev):

    -9.3010  -7.9157  -7.6129  -7.1250  -6.4652  -5.6381  -4.6555  -3.5269
    -2.2450  -1.0330   0.5023   1.9003   2.8346   3.9525   5.3137   6.2916
     6.5409   6.8001

          k = 0.1250 0.2887 0.0000 (  5487 PWs)   bands (ev):

    -8.7358  -7.2547  -6.9550  -6.4714  -5.8165  -4.9949  -4.0187  -2.8984
    -1.6268  -0.4250   1.0971   2.2763   2.7466   3.9372   4.5851   4.8289
     5.1426   5.3901

          k = 0.1250 0.3608 0.0000 (  5494 PWs)   bands (ev):

    -8.0529  -6.4096  -6.1146  -5.6373  -4.9900  -4.1777  -3.2136  -2.1100
    -0.8690   0.3106   1.5217   1.8071   2.2850   2.6929   3.2200   3.5076
     3.8466   4.3267

          k = 0.1250 0.4330 0.0000 (  5496 PWs)   bands (ev):

    -7.3131  -5.3841  -5.0961  -4.6292  -3.9953  -3.2019  -2.2687  -1.2287
    -0.2142   0.3207   0.4610   0.8458   1.3715   1.6065   2.0142   2.7228
     2.9990   3.5818

          k = 0.1250 0.5052 0.0000 (  5491 PWs)   bands (ev):

    -6.6556  -4.1831  -3.9081  -3.4636  -2.8680  -2.1561  -1.4634  -1.2358
    -1.0320  -0.7715  -0.5356   0.0328   0.6604   1.1624   1.5845   2.0390
     2.5697   3.0594

          k = 0.1250 0.5774 0.0000 (  5460 PWs)   bands (ev):

    -6.3583  -2.8467  -2.8111  -2.6553  -2.5520  -2.3169  -2.0336  -1.7860
    -1.4957  -1.1565  -0.8325  -0.2716   0.5158   0.7973   1.5316   1.7073
     2.6604   2.8821

          k = 0.1875 0.3248 0.0000 (  5509 PWs)   bands (ev):

    -8.1245  -6.5032  -6.2076  -5.7295  -5.0812  -4.2673  -3.3009  -2.1936
    -0.9436   0.2463   1.7065   2.0615   2.9253   3.4592   3.7178   4.0027
     4.2223   4.2276

          k = 0.1875 0.3969 0.0000 (  5493 PWs)   bands (ev):

    -7.4292  -5.5698  -5.2801  -4.8103  -4.1725  -3.3728  -2.4267  -1.3523
    -0.1799   0.8643   1.4074   1.6914   2.0127   2.3780   2.7302   2.9508
     3.1362   3.2848

          k = 0.1875 0.4691 0.0000 (  5470 PWs)   bands (ev):

    -6.7426  -4.4585  -4.1782  -3.7234  -3.1074  -2.3426  -1.4654  -0.5846
    -0.1473   0.0764   0.1643   0.6807   1.3376   1.5912   2.1224   2.3089
     2.5600   2.7954

          k = 0.1875 0.5413 0.0000 (  5454 PWs)   bands (ev):

    -6.2581  -3.1770  -2.9188  -2.5101  -2.0119  -1.7407  -1.5093  -1.3147
    -1.0510  -0.7266  -0.4340   0.1278   0.8294   1.2479   1.6248   2.1155
     2.4340   2.5630

          k = 0.2500 0.4330 0.0000 (  5491 PWs)   bands (ev):

    -6.7769  -4.5506  -4.2689  -3.8115  -3.1906  -2.4158  -1.5110  -0.5225
     0.4053   1.0097   1.1860   1.2176   1.3346   1.5642   1.7927   2.0116
     2.3853   2.4890

          k = 0.2500 0.5052 0.0000 (  5430 PWs)   bands (ev):

    -6.2252  -3.3571  -3.0891  -2.6559  -2.0753  -1.3785  -0.6711  -0.4354
    -0.2473   0.0141   0.2314   0.6922   0.9045   1.0478   1.2450   1.4022
     1.7504   2.0082

          k = 0.2500 0.5774 0.0000 (  5430 PWs)   bands (ev):

    -5.9804  -2.0291  -1.9951  -1.8405  -1.7441  -1.5067  -1.2310  -0.9795
    -0.7208  -0.3650  -0.0856   0.4374   0.7235   0.9151   1.1686   1.2756
     1.5441   1.6833

          k = 0.3125 0.5413 0.0000 (  5411 PWs)   bands (ev):

    -5.8917  -2.0889  -1.8455  -1.4616  -0.9868  -0.6999  -0.6530  -0.5035
    -0.4103  -0.2821  -0.1787  -0.0109   0.2879   0.3419   0.5632   0.8004
     1.1852   1.5741

          k =-0.0625 0.0361 0.0000 (  5524 PWs)   bands (ev):

   -10.2351  -8.9606  -8.6536  -8.1601  -7.4937  -6.6591  -5.6684  -4.5311
    -3.2409  -2.0041  -0.4688   0.9866   2.2844   3.5415   4.9157   5.8798
     5.9088   6.3320

          k =-0.1250 0.0722 0.0000 (  5500 PWs)   bands (ev):

    -9.9783  -8.6749  -8.3690  -7.8769  -7.2121  -6.3793  -5.3906  -4.2554
    -2.9667  -1.7380  -0.2017   1.2471   2.5051   3.7077   5.0622   6.0746
     6.1582   6.3731

          k =-0.1875 0.1083 0.0000 (  5496 PWs)   bands (ev):

    -9.5566  -8.1999  -7.8959  -7.4063  -6.7444  -5.9148  -4.9295  -3.7981
    -2.5133  -1.2964   0.2390   1.6698   2.7722   3.7716   4.9210   5.8273
     6.4489   6.5977

          k =-0.2500 0.1443 0.0000 (  5490 PWs)   bands (ev):

    -8.9815  -7.5375  -7.2364  -6.7507  -6.0931  -5.2685  -4.2890  -3.1644
    -1.8883  -0.6850   0.8368   2.0887   2.4613   3.5753   4.1859   4.6211
     4.8410   5.3506

          k =-0.3125 0.1804 0.0000 (  5482 PWs)   bands (ev):

    -8.2766  -6.6905  -6.3936  -5.9135  -5.2625  -4.4458  -3.4762  -2.3662
    -1.1169   0.0577   0.9371   1.4848   2.0256   2.4348   2.9361   3.3007
     3.5556   4.2722

          k =-0.3750 0.2165 0.0000 (  5488 PWs)   bands (ev):

    -7.4948  -5.6627  -5.3720  -4.9008  -4.2615  -3.4608  -2.5178  -1.4728
    -0.5990  -0.0983   0.1707   0.4141   0.8953   1.3874   1.7655   2.4826
     2.8049   3.3815

          k =-0.4375 0.2526 0.0000 (  5504 PWs)   bands (ev):

    -6.7726  -4.4591  -4.1801  -3.7291  -3.1250  -2.4175  -1.8549  -1.5218
    -1.2730  -1.1405  -0.7574  -0.4730   0.1170   0.8735   1.3521   1.7985
     2.3597   2.8418

          k = 0.5000-0.2887 0.0000 (  5484 PWs)   bands (ev):

    -6.4380  -3.1224  -3.0801  -2.9364  -2.7950  -2.6227  -2.3914  -2.1050
    -1.7094  -1.5197  -0.9550  -0.8736  -0.0803   0.5755   1.2338   1.5185
     2.4706   2.7195

          k =-0.0625 0.1083 0.0000 (  5511 PWs)   bands (ev):

   -10.0628  -8.7701  -8.4638  -7.9712  -7.3059  -6.4725  -5.4831  -4.3472
    -3.0579  -1.8265  -0.2904   1.1603   2.4308   3.6565   5.0304   6.0512
     6.0735   6.3950

          k =-0.0625 0.1804 0.0000 (  5519 PWs)   bands (ev):

    -9.7217  -8.3897  -8.0849  -7.5943  -6.9313  -6.1006  -5.1140  -3.9809
    -2.6943  -1.4726   0.0639   1.5002   2.6727   3.8053   5.1512   6.1367
     6.4168   6.5778

          k =-0.1250 0.1443 0.0000 (  5519 PWs)   bands (ev):

    -9.7236  -8.3897  -8.0849  -7.5943  -6.9312  -6.1004  -5.1138  -3.9806
    -2.6940  -1.4726   0.0637   1.5027   2.6874   3.8010   5.0869   5.9963
     6.4175   6.5528

          k =-0.0625 0.2526 0.0000 (  5496 PWs)   bands (ev):

    -9.2208  -7.8210  -7.5187  -7.0313  -6.3720  -5.5455  -4.5636  -3.4362
    -2.1558  -0.9460   0.5868   1.9670   2.7374   3.8360   5.0115   5.5699
     5.6783   5.9754

          k =-0.1875 0.1804 0.0000 (  5496 PWs)   bands (ev):

    -9.2247  -7.8210  -7.5186  -7.0312  -6.3717  -5.5449  -4.5627  -3.4350
    -2.1544  -0.9455   0.5858   1.9805   2.7329   3.7071   4.7698   5.4638
     5.6590   6.0668

          k =-0.0625 0.3248 0.0000 (  5488 PWs)   bands (ev):

    -8.5796  -7.0664  -6.7677  -6.2853  -5.6318  -4.8121  -3.8385  -2.7217
    -1.4570  -0.2604   1.2323   1.8499   2.5801   3.1880   3.6541   3.9484
     4.4950   4.5574

          k =-0.2500 0.2165 0.0000 (  5488 PWs)   bands (ev):

    -8.5830  -7.0664  -6.7674  -6.2847  -5.6307  -4.8101  -3.8355  -2.7177
    -1.4519  -0.2579   1.2200   1.6595   2.5642   3.1378   3.5518   3.9587
     4.2955   4.6536

          k =-0.0625 0.3969 0.0000 (  5490 PWs)   bands (ev):

    -7.8384  -6.1291  -5.8359  -5.3612  -4.7173  -3.9098  -2.9537  -1.8664
    -0.6748   0.3608   0.8598   1.1615   1.5008   1.9502   2.4585   2.7081
     3.3746   3.8262

          k =-0.3125 0.2526 0.0000 (  5490 PWs)   bands (ev):

    -7.8338  -6.1289  -5.8351  -5.3594  -4.7140  -3.9042  -2.9449  -1.8532
    -0.6597   0.2186   0.6391   1.1052   1.4352   1.9472   2.4786   2.7028
     3.3557   3.8064

          k =-0.0625 0.4691 0.0000 (  5501 PWs)   bands (ev):

    -7.0906  -5.0134  -4.7294  -4.2691  -3.6459  -2.8728  -1.9900  -1.1252
    -0.6858  -0.4555  -0.3719   0.1543   0.8310   1.1228   1.7041   1.8624
     2.6060   3.3524

          k =-0.3750 0.2887 0.0000 (  5501 PWs)   bands (ev):

    -7.0614  -5.0128  -4.7273  -4.2643  -3.6368  -2.8574  -1.9736  -1.2287
    -0.6807  -0.5978  -0.3362  -0.0402   0.5414   1.1702   1.6840   1.9041
     2.6312   3.3408

          k =-0.0625 0.5413 0.0000 (  5499 PWs)   bands (ev):

    -6.5557  -3.7271  -3.4662  -3.0552  -2.5586  -2.2818  -2.0519  -1.8641
    -1.5786  -1.2620  -0.9597  -0.3843   0.3021   0.8334   1.1225   1.9616
     2.1608   3.0367

          k =-0.4375 0.3248 0.0000 (  5499 PWs)   bands (ev):

    -6.4859  -3.7258  -3.4616  -3.0455  -2.5564  -2.2940  -2.1575  -1.8893
    -1.5331  -1.3575  -0.8652  -0.6809   0.0132   0.7802   1.1624   1.8991
     2.2409   2.9955

          k =-0.1250 0.2165 0.0000 (  5513 PWs)   bands (ev):

    -9.3050  -7.9156  -7.6128  -7.1249  -6.4649  -5.6375  -4.6546  -3.5258
    -2.2441  -1.0331   0.5010   1.9063   2.7995   3.8260   5.0701   6.0021
     6.5807   6.7334

          k =-0.1250 0.2887 0.0000 (  5487 PWs)   bands (ev):

    -8.7365  -7.2546  -6.9549  -6.4710  -5.8158  -4.9939  -4.0175  -2.8971
    -1.6263  -0.4264   1.0922   2.1377   2.6419   3.8857   4.5207   4.8055
     5.0632   5.4557

          k =-0.1875 0.2526 0.0000 (  5487 PWs)   bands (ev):

    -8.7382  -7.2546  -6.9548  -6.4709  -5.8155  -4.9933  -4.0166  -2.8958
    -1.6247  -0.4256   1.0906   2.1059   2.6084   3.8075   4.4026   4.8324
     5.0082   5.4257

          k =-0.1250 0.3608 0.0000 (  5494 PWs)   bands (ev):

    -8.0469  -6.4095  -6.1143  -5.6367  -4.9890  -4.1765  -3.2125  -2.1100
    -0.8737   0.2952   1.2984   1.7728   2.2824   2.6829   3.1843   3.5282
     3.7562   4.3486

          k =-0.2500 0.2887 0.0000 (  5494 PWs)   bands (ev):

    -8.0464  -6.4094  -6.1139  -5.6359  -4.9876  -4.1740  -3.2085  -2.1041
    -0.8653   0.2980   1.0629   1.7337   2.2796   2.6772   3.1531   3.5264
     3.7176   4.3483

          k =-0.1250 0.4330 0.0000 (  5496 PWs)   bands (ev):

    -7.2987  -5.3840  -5.0958  -4.6287  -3.9949  -3.2024  -2.2724  -1.2441
    -0.2762   0.2935   0.4508   0.8191   1.3289   1.6015   1.9741   2.6677
     2.9948   3.5046

          k =-0.3125 0.3248 0.0000 (  5496 PWs)   bands (ev):

    -7.2855  -5.3837  -5.0947  -4.6262  -3.9901  -3.1939  -2.2586  -1.2287
    -0.3812   0.1606   0.4353   0.6700   1.1431   1.6447   2.0175   2.7022
     3.0014   3.5399

          k =-0.1250 0.5052 0.0000 (  5491 PWs)   bands (ev):

    -6.6394  -4.1832  -3.9086  -3.4654  -2.8732  -2.1705  -1.4845  -1.2414
    -1.0299  -0.7746  -0.5462   0.0238   0.6444   1.1263   1.6080   1.9859
     2.5873   2.9776

          k =-0.3750 0.3608 0.0000 (  5491 PWs)   bands (ev):

    -6.5933  -4.1824  -3.9055  -3.4581  -2.8597  -2.1608  -1.5943  -1.2531
    -1.0073  -0.8735  -0.4952  -0.2212   0.3692   1.1195   1.5965   2.0295
     2.5998   3.0288

          k =-0.4375 0.3969 0.0000 (  5460 PWs)   bands (ev):

    -6.2788  -2.8480  -2.8062  -2.6632  -2.5236  -2.3527  -2.1242  -1.8331
    -1.4451  -1.2517  -0.6976  -0.6161   0.1683   0.8300   1.4715   1.7595
     2.6542   2.9076

          k =-0.1875 0.3248 0.0000 (  5509 PWs)   bands (ev):

    -8.1184  -6.5031  -6.2071  -5.7286  -5.0796  -4.2651  -3.2982  -2.1913
    -0.9446   0.2362   1.4634   1.7945   2.9530   3.4813   3.6516   3.8541
     4.1538   4.2290

          k =-0.1875 0.3969 0.0000 (  5493 PWs)   bands (ev):

    -7.4106  -5.5696  -5.2795  -4.8092  -4.1709  -3.3712  -2.4266  -1.3593
    -0.2234   0.6644   1.2473   1.6482   1.9467   2.3730   2.7308   2.8938
     3.0808   3.3696

          k =-0.2500 0.3608 0.0000 (  5493 PWs)   bands (ev):

    -7.4069  -5.5695  -5.2791  -4.8084  -4.1694  -3.3685  -2.4223  -1.3527
    -0.2212   0.5503   1.1412   1.6208   1.9249   2.4092   2.7670   2.9327
     3.0808   3.3658

          k =-0.1875 0.4691 0.0000 (  5470 PWs)   bands (ev):

    -6.7144  -4.4585  -4.1781  -3.7236  -3.1094  -2.3504  -1.4928  -0.6627
    -0.1551   0.0651   0.1406   0.6377   1.2580   1.5399   2.0355   2.3091
     2.5927   2.7803

          k =-0.3125 0.3969 0.0000 (  5470 PWs)   bands (ev):

    -6.6927  -4.4581  -4.1766  -3.7202  -3.1028  -2.3393  -1.4848  -0.7544
    -0.1571  -0.0675   0.1894   0.4540   1.0089   1.6215   2.1002   2.3406
     2.6224   2.8623

          k =-0.1875 0.5413 0.0000 (  5454 PWs)   bands (ev):

    -6.2419  -3.1777  -2.9218  -2.5192  -2.0297  -1.7403  -1.5077  -1.3325
    -1.0471  -0.7290  -0.4457   0.1270   0.7808   1.2875   1.5256   2.2028
     2.3550   2.5443

          k =-0.3750 0.4330 0.0000 (  5454 PWs)   bands (ev):

    -6.1837  -3.1765  -2.9174  -2.5098  -2.0268  -1.7557  -1.6186  -1.3510
    -1.0091  -0.8242  -0.3507  -0.1820   0.4970   1.2327   1.6210   2.1802
     2.4124   2.5733

          k =-0.2500 0.4330 0.0000 (  5491 PWs)   bands (ev):

    -6.7379  -4.5503  -4.2681  -3.8101  -3.1895  -2.4176  -1.5269  -0.6036
     0.1454   0.8708   1.1821   1.2137   1.2805   1.4269   1.7223   2.1128
     2.4123   2.5495

          k =-0.2500 0.5052 0.0000 (  5430 PWs)   bands (ev):

    -6.1876  -3.3573  -3.0905  -2.6609  -2.0907  -1.4226  -0.7463  -0.4478
    -0.2365  -0.0027   0.1870   0.6596   0.8614   0.9746   1.2503   1.3673
     1.7464   2.0866

          k =-0.3125 0.4691 0.0000 (  5430 PWs)   bands (ev):

    -6.1669  -3.3570  -3.0891  -2.6574  -2.0849  -1.4250  -0.8292  -0.4554
    -0.2341  -0.0848   0.2512   0.4582   0.8878   0.9688   1.1817   1.3741
     1.7746   2.1043

          k =-0.3750 0.5052 0.0000 (  5430 PWs)   bands (ev):

    -5.9279  -2.0301  -1.9910  -1.8481  -1.7197  -1.5485  -1.3338  -1.0260
    -0.6849  -0.4587   0.0074   0.1249   0.7353   0.8402   1.0813   1.3038
     1.4970   1.7162

          k =-0.3125 0.5413 0.0000 (  5411 PWs)   bands (ev):

    -5.8634  -2.0906  -1.8532  -1.4847  -1.0329  -0.6961  -0.6775  -0.5577
    -0.4366  -0.3120  -0.1470   0.0713   0.2391   0.3512   0.6000   0.7281
     1.0590   1.5597

     the Fermi energy is     2.1101 ev

!    total energy              =    -113.13767789 Ry
     Harris-Foulkes estimate   =    -113.13768574 Ry
     estimated scf accuracy    <       0.00000760 Ry

     The total energy is the sum of the following terms:

     one-electron contribution =   -1214.77651365 Ry
     hartree contribution      =     615.22152710 Ry
     xc contribution           =     -91.05242684 Ry
     ewald contribution        =     577.46853198 Ry
     smearing contrib. (-TS)   =       0.00120352 Ry

     convergence has been achieved in  28 iterations

     negative rho (up, down):  2.666E-05 0.000E+00

     Forces acting on atoms (cartesian axes, Ry/au):

     atom    1 type  1   force =    -0.00006380    0.00003684   -0.00225162
     atom    2 type  1   force =     0.00013067   -0.00007544    0.00307293
     atom    3 type  1   force =     0.00000098   -0.00000056   -0.00243046
     atom    4 type  1   force =     0.00010830   -0.00006253   -0.00001235
     atom    5 type  1   force =     0.00009633   -0.00005562    0.00058685
     atom    6 type  1   force =    -0.00018350    0.00010594    0.00034975
     atom    7 type  1   force =    -0.00011900    0.00006871   -0.00488598
     atom    8 type  1   force =    -0.00418758    0.00241770   -0.00877738
     atom    9 type  1   force =     0.00156318   -0.00090250    0.00023252
     atom   10 type  2   force =     0.00265443   -0.00153254    0.01411574

     Total force =     0.018901     Total SCF correction =     0.005072
     SCF correction compared to forces is large: reduce conv_thr to get better values


     Computing stress (Cartesian axis) and pressure


     negative rho (up, down):  2.666E-05 0.000E+00
          total   stress  (Ry/bohr**3)                   (kbar)     P=   19.34
   0.00009317   0.00017134   0.00000162         13.71     25.21      0.24
   0.00017134   0.00029101  -0.00000093         25.21     42.81     -0.14
   0.00000162  -0.00000093   0.00001029          0.24     -0.14      1.51


     BFGS Geometry Optimization

     number of scf cycles    =   1
     number of bfgs steps    =   0

     energy   new            =    -113.1376778881 Ry

     new trust radius        =       0.0144446774 bohr
     new conv_thr            =       0.0000090000 Ry


ATOMIC_POSITIONS (crystal)
Al       0.333325388   0.666674512   0.111082602
Al       0.666682804   0.333317096   0.055594443
Al       0.000000121  -0.000000121  -0.000030761
Al       0.333346730   0.666653170   0.277777610
Al       0.666678546   0.333321354   0.222229644
Al      -0.000022756   0.000022756   0.166671093
Al       0.333318543   0.666681357   0.444382594
Al       0.666147306   0.333852594   0.388777792
Al       0.000193847  -0.000193847   0.333336276
H        0.833662470   0.166337530   0.444623089



     Writing output data file Al_H23_et0_3_3.save/
     NEW-OLD atomic charge density approx. for the potential

     negative rho (up, down):  2.804E-05 0.000E+00

     total cpu time spent up to now is     1224.8 secs

     Self-consistent Calculation

     iteration #  1     ecut=    30.00 Ry     beta= 0.30
     Davidson diagonalization with overlap
     ethr =  1.00E-06,  avg # of iterations =  4.9

     negative rho (up, down):  1.241E-05 0.000E+00

     total cpu time spent up to now is     1294.5 secs

     total energy              =    -113.13822743 Ry
     Harris-Foulkes estimate   =    -113.13846216 Ry
     estimated scf accuracy    <       0.02422510 Ry

     iteration #  2     ecut=    30.00 Ry     beta= 0.30
     Davidson diagonalization with overlap
     ethr =  8.65E-05,  avg # of iterations =  1.0

     negative rho (up, down):  9.429E-07 0.000E+00

     total cpu time spent up to now is     1331.3 secs

     total energy              =    -113.13778278 Ry
     Harris-Foulkes estimate   =    -113.13825848 Ry
     estimated scf accuracy    <       0.01317840 Ry

     iteration #  3     ecut=    30.00 Ry     beta= 0.30
     Davidson diagonalization with overlap
     ethr =  4.71E-05,  avg # of iterations =  1.1

     negative rho (up, down):  8.581E-07 0.000E+00

     total cpu time spent up to now is     1368.8 secs

     total energy              =    -113.13804654 Ry
     Harris-Foulkes estimate   =    -113.13805214 Ry
     estimated scf accuracy    <       0.00013569 Ry

     iteration #  4     ecut=    30.00 Ry     beta= 0.30
     Davidson diagonalization with overlap
     ethr =  4.85E-07,  avg # of iterations =  4.3

     negative rho (up, down):  8.213E-07 0.000E+00

     total cpu time spent up to now is     1415.2 secs

     total energy              =    -113.13806791 Ry
     Harris-Foulkes estimate   =    -113.13807134 Ry
     estimated scf accuracy    <       0.00006352 Ry

     iteration #  5     ecut=    30.00 Ry     beta= 0.30
     Davidson diagonalization with overlap
     ethr =  2.27E-07,  avg # of iterations =  1.3

     negative rho (up, down):  5.645E-07 0.000E+00

     total cpu time spent up to now is     1453.3 secs

     total energy              =    -113.13806876 Ry
     Harris-Foulkes estimate   =    -113.13806998 Ry
     estimated scf accuracy    <       0.00001158 Ry

     iteration #  6     ecut=    30.00 Ry     beta= 0.30
     Davidson diagonalization with overlap
     ethr =  4.14E-08,  avg # of iterations =  1.8

     negative rho (up, down):  5.978E-07 0.000E+00

     total cpu time spent up to now is     1491.6 secs

     total energy              =    -113.13806860 Ry
     Harris-Foulkes estimate   =    -113.13807005 Ry
     estimated scf accuracy    <       0.00003427 Ry

     iteration #  7     ecut=    30.00 Ry     beta= 0.30
     Davidson diagonalization with overlap
     ethr =  4.14E-08,  avg # of iterations =  1.1

     negative rho (up, down):  2.673E-05 0.000E+00

     total cpu time spent up to now is     1526.0 secs

     End of self-consistent calculation

          k = 0.0000 0.0000 0.0000 (  5537 PWs)   bands (ev):

   -10.3234  -9.0612  -8.7556  -8.2616  -7.5943  -6.7606  -5.7690  -4.6304
    -3.3415  -2.1017  -0.5650   0.8968   2.2060   3.4693   4.8398   5.7956
     5.8852   6.3419

          k = 0.0000 0.0722 0.0000 (  5524 PWs)   bands (ev):

   -10.2365  -8.9658  -8.6606  -8.1670  -7.5003  -6.6672  -5.6763  -4.5383
    -3.2497  -2.0126  -0.4753   0.9839   2.2810   3.5322   4.9072   5.8872
     5.9696   6.3997

          k = 0.0000 0.1443 0.0000 (  5500 PWs)   bands (ev):

    -9.9777  -8.6800  -8.3760  -7.8838  -7.2187  -6.3874  -5.3986  -4.2628
    -2.9759  -1.7466  -0.2081   1.2428   2.4916   3.6946   5.0761   6.1466
     6.1835   6.5204

          k = 0.0000 0.2165 0.0000 (  5496 PWs)   bands (ev):

    -9.5538  -8.2051  -7.9029  -7.4133  -6.7511  -5.9232  -4.9381  -3.8062
    -2.5232  -1.3052   0.2331   1.6605   2.7384   3.8276   5.1635   6.1139
     6.4152   6.5958

          k = 0.0000 0.2887 0.0000 (  5490 PWs)   bands (ev):

    -8.9782  -7.5428  -7.2436  -6.7580  -6.1004  -5.2777  -4.2988  -3.1743
    -1.9004  -0.6946   0.8331   2.1038   2.5819   3.7109   4.3675   4.5869
     4.9463   5.3284

          k = 0.0000 0.3608 0.0000 (  5482 PWs)   bands (ev):

    -8.2782  -6.6959  -6.4013  -5.9217  -5.2712  -4.4571  -3.4895  -2.3811
    -1.1357   0.0463   1.2511   1.5557   2.0280   2.4433   2.9762   3.2926
     3.6365   4.2033

          k = 0.0000 0.4330 0.0000 (  5488 PWs)   bands (ev):

    -7.5139  -5.6684  -5.3807  -4.9111  -4.2734  -3.4776  -2.5401  -1.4962
    -0.4899   0.0415   0.1878   0.5731   1.0991   1.3392   1.7439   2.4671
     2.8006   3.3767

          k = 0.0000 0.5052 0.0000 (  5504 PWs)   bands (ev):

    -6.8282  -4.4654  -4.1908  -3.7436  -3.1432  -2.4306  -1.7443  -1.5138
    -1.3065  -1.0471  -0.8086  -0.2361   0.3877   0.8868   1.3536   1.7718
     2.3388   2.8246

          k = 0.0000-0.5774 0.0000 (  5484 PWs)   bands (ev):

    -6.5222  -3.1272  -3.0905  -2.9348  -2.8305  -2.5935  -2.3126  -2.0610
    -1.7685  -1.4294  -1.1010  -0.5423   0.2511   0.5328   1.2959   1.4556
     2.4799   2.6818

          k = 0.0625 0.1083 0.0000 (  5511 PWs)   bands (ev):

   -10.0631  -8.7752  -8.4708  -7.9781  -7.3125  -6.4806  -5.4911  -4.3545
    -3.0669  -1.8350  -0.2968   1.1568   2.4227   3.6459   5.0311   6.0684
     6.1250   6.5016

          k = 0.0625 0.1804 0.0000 (  5519 PWs)   bands (ev):

    -9.7214  -8.3949  -8.0919  -7.6012  -6.9379  -6.1087  -5.1221  -3.9884
    -2.7035  -1.4811   0.0577   1.4961   2.6656   3.8154   5.2027   6.2745
     6.4185   6.6973

          k = 0.0625 0.2526 0.0000 (  5496 PWs)   bands (ev):

    -9.2213  -7.8262  -7.5258  -7.0384  -6.3787  -5.5537  -4.5719  -3.4439
    -2.1651  -0.9543   0.5810   1.9677   2.7843   3.8861   5.0571   5.5721
     5.7132   5.9781

          k = 0.0625 0.3248 0.0000 (  5488 PWs)   bands (ev):

    -8.5825  -7.0717  -6.7749  -6.2925  -5.6386  -4.8203  -3.8468  -2.7293
    -1.4658  -0.2675   1.2313   1.9646   2.5793   3.1868   3.6629   3.9460
     4.4724   4.5939

          k = 0.0625 0.3969 0.0000 (  5490 PWs)   bands (ev):

    -7.8456  -6.1344  -5.8433  -5.3686  -4.7240  -3.9176  -2.9612  -1.8720
    -0.6758   0.3868   0.8890   1.1678   1.5096   1.9531   2.4595   2.7146
     3.3857   3.8221

          k = 0.0625 0.4691 0.0000 (  5501 PWs)   bands (ev):

    -7.1017  -5.0188  -4.7368  -4.2762  -3.6512  -2.8772  -1.9900  -1.1123
    -0.6904  -0.4597  -0.3712   0.1578   0.8371   1.1184   1.7120   1.8534
     2.6220   3.3449

          k = 0.0625 0.5413 0.0000 (  5499 PWs)   bands (ev):

    -6.5642  -3.7324  -3.4729  -3.0594  -2.5568  -2.2876  -2.0584  -1.8642
    -1.5869  -1.2668  -0.9630  -0.3915   0.3007   0.8188   1.1280   1.9431
     2.1686   3.0211

          k = 0.1250 0.2165 0.0000 (  5513 PWs)   bands (ev):

    -9.3032  -7.9209  -7.6199  -7.1320  -6.4717  -5.6460  -4.6633  -3.5340
    -2.2540  -1.0415   0.4957   1.9000   2.8359   3.9438   5.3046   6.2852
     6.5354   6.7553

          k = 0.1250 0.2887 0.0000 (  5487 PWs)   bands (ev):

    -8.7381  -7.2599  -6.9621  -6.4784  -5.8230  -5.0027  -4.0265  -2.9056
    -1.6359  -0.4337   1.0902   2.2831   2.7407   3.9295   4.5787   4.8226
     5.1348   5.3862

          k = 0.1250 0.3608 0.0000 (  5494 PWs)   bands (ev):

    -8.0553  -6.4148  -6.1218  -5.6444  -4.9963  -4.1852  -3.2212  -2.1172
    -0.8781   0.3021   1.5189   1.8065   2.2798   2.6853   3.2131   3.5035
     3.8397   4.3225

          k = 0.1250 0.4330 0.0000 (  5496 PWs)   bands (ev):

    -7.3159  -5.3894  -5.1035  -4.6364  -4.0014  -3.2089  -2.2759  -1.2356
    -0.2210   0.3147   0.4559   0.8400   1.3665   1.5976   2.0081   2.7144
     2.9931   3.5751

          k = 0.1250 0.5052 0.0000 (  5491 PWs)   bands (ev):

    -6.6590  -4.1885  -3.9156  -3.4708  -2.8730  -2.1606  -1.4694  -1.2411
    -1.0397  -0.7782  -0.5406   0.0266   0.6537   1.1526   1.5762   2.0310
     2.5618   3.0526

          k = 0.1250 0.5774 0.0000 (  5460 PWs)   bands (ev):

    -6.3622  -2.8529  -2.8166  -2.6616  -2.5591  -2.3217  -2.0403  -1.7884
    -1.5021  -1.1607  -0.8398  -0.2806   0.5067   0.7891   1.5236   1.7010
     2.6509   2.8749

          k = 0.1875 0.3248 0.0000 (  5509 PWs)   bands (ev):

    -8.1270  -6.5084  -6.2148  -5.7366  -5.0875  -4.2749  -3.3086  -2.2008
    -0.9528   0.2376   1.6986   2.0688   2.9184   3.4523   3.7114   3.9966
     4.2174   4.2227

          k = 0.1875 0.3969 0.0000 (  5493 PWs)   bands (ev):

    -7.4319  -5.5751  -5.2874  -4.8175  -4.1787  -3.3799  -2.4341  -1.3594
    -0.1885   0.8581   1.4037   1.6871   2.0079   2.3702   2.7242   2.9469
     3.1299   3.2792

          k = 0.1875 0.4691 0.0000 (  5470 PWs)   bands (ev):

    -6.7459  -4.4639  -4.1856  -3.7306  -3.1130  -2.3486  -1.4719  -0.5906
    -0.1537   0.0703   0.1588   0.6748   1.3315   1.5828   2.1148   2.3014
     2.5549   2.7898

          k = 0.1875 0.5413 0.0000 (  5454 PWs)   bands (ev):

    -6.2619  -3.1825  -2.9263  -2.5168  -2.0149  -1.7463  -1.5152  -1.3193
    -1.0584  -0.7318  -0.4401   0.1203   0.8202   1.2404   1.6168   2.1083
     2.4283   2.5571

          k = 0.2500 0.4330 0.0000 (  5491 PWs)   bands (ev):

    -6.7801  -4.5559  -4.2763  -3.8187  -3.1964  -2.4221  -1.5178  -0.5291
     0.3993   1.0037   1.1799   1.2128   1.3280   1.5582   1.7884   2.0059
     2.3805   2.4808

          k = 0.2500 0.5052 0.0000 (  5430 PWs)   bands (ev):

    -6.2290  -3.3626  -3.0966  -2.6631  -2.0798  -1.3825  -0.6769  -0.4409
    -0.2551   0.0077   0.2263   0.6866   0.8984   1.0423   1.2394   1.3957
     1.7441   2.0005

          k = 0.2500 0.5774 0.0000 (  5430 PWs)   bands (ev):

    -5.9845  -2.0354  -2.0006  -1.8467  -1.7512  -1.5116  -1.2377  -0.9820
    -0.7267  -0.3694  -0.0921   0.4289   0.7173   0.9101   1.1610   1.2687
     1.5371   1.6781

          k = 0.3125 0.5413 0.0000 (  5411 PWs)   bands (ev):

    -5.8959  -2.0945  -1.8529  -1.4677  -0.9892  -0.7064  -0.6584  -0.5098
    -0.4159  -0.2875  -0.1832  -0.0178   0.2837   0.3369   0.5576   0.7938
     1.1767   1.5666

          k =-0.0625 0.0361 0.0000 (  5524 PWs)   bands (ev):

   -10.2372  -8.9658  -8.6606  -8.1670  -7.5003  -6.6672  -5.6762  -4.5382
    -3.2497  -2.0126  -0.4753   0.9843   2.2836   3.5346   4.9060   5.8869
     5.9686   6.3933

          k =-0.1250 0.0722 0.0000 (  5500 PWs)   bands (ev):

    -9.9805  -8.6801  -8.3760  -7.8838  -7.2186  -6.3873  -5.3984  -4.2625
    -2.9756  -1.7465  -0.2083   1.2451   2.5053   3.7006   5.0515   6.0872
     6.1726   6.4443

          k =-0.1875 0.1083 0.0000 (  5496 PWs)   bands (ev):

    -9.5588  -8.2051  -7.9029  -7.4132  -6.7509  -5.9228  -4.9374  -3.8054
    -2.5224  -1.3050   0.2323   1.6687   2.7748   3.7622   4.9105   5.8214
     6.4488   6.5936

          k =-0.2500 0.1443 0.0000 (  5490 PWs)   bands (ev):

    -8.9838  -7.5428  -7.2435  -6.7576  -6.0997  -5.2764  -4.2969  -3.1718
    -1.8976  -0.6939   0.8297   2.0970   2.4535   3.5672   4.1794   4.6146
     4.8351   5.3455

          k =-0.3125 0.1804 0.0000 (  5482 PWs)   bands (ev):

    -8.2790  -6.6958  -6.4008  -5.9206  -5.2690  -4.4536  -3.4841  -2.3738
    -1.1267   0.0479   0.9382   1.4792   2.0197   2.4285   2.9311   3.2955
     3.5510   4.2662

          k =-0.3750 0.2165 0.0000 (  5488 PWs)   bands (ev):

    -7.4974  -5.6680  -5.3793  -4.9080  -4.2678  -3.4682  -2.5257  -1.4809
    -0.6056  -0.1034   0.1655   0.4060   0.8880   1.3817   1.7605   2.4759
     2.7994   3.3752

          k =-0.4375 0.2526 0.0000 (  5504 PWs)   bands (ev):

    -6.7756  -4.4645  -4.1876  -3.7364  -3.1307  -2.4231  -1.8615  -1.5276
    -1.2806  -1.1465  -0.7650  -0.4805   0.1107   0.8663   1.3447   1.7922
     2.3524   2.8362

          k = 0.5000-0.2887 0.0000 (  5484 PWs)   bands (ev):

    -6.4413  -3.1290  -3.0854  -2.9431  -2.8025  -2.6274  -2.3985  -2.1083
    -1.7151  -1.5264  -0.9651  -0.8812  -0.0882   0.5682   1.2271   1.5132
     2.4621   2.7131

          k =-0.0625 0.1083 0.0000 (  5511 PWs)   bands (ev):

   -10.0650  -8.7752  -8.4708  -7.9781  -7.3124  -6.4805  -5.4910  -4.3544
    -3.0668  -1.8350  -0.2970   1.1582   2.4306   3.6495   5.0203   6.0627
     6.1118   6.4583

          k =-0.0625 0.1804 0.0000 (  5519 PWs)   bands (ev):

    -9.7238  -8.3949  -8.0919  -7.6012  -6.9378  -6.1085  -5.1218  -3.9881
    -2.7032  -1.4812   0.0573   1.4986   2.6737   3.7975   5.1405   6.1358
     6.4225   6.6569

          k =-0.1250 0.1443 0.0000 (  5519 PWs)   bands (ev):

    -9.7257  -8.3949  -8.0919  -7.6012  -6.9378  -6.1084  -5.1216  -3.9878
    -2.7029  -1.4812   0.0571   1.5011   2.6888   3.7930   5.0756   5.9924
     6.4246   6.6279

          k =-0.0625 0.2526 0.0000 (  5496 PWs)   bands (ev):

    -9.2230  -7.8262  -7.5257  -7.0383  -6.3785  -5.5534  -4.5715  -3.4434
    -2.1649  -0.9546   0.5801   1.9679   2.7381   3.8266   5.0036   5.5623
     5.6710   5.9678

          k =-0.1875 0.1804 0.0000 (  5496 PWs)   bands (ev):

    -9.2269  -7.8262  -7.5257  -7.0381  -6.3782  -5.5528  -4.5706  -3.4422
    -2.1636  -0.9542   0.5790   1.9816   2.7344   3.6962   4.7616   5.4574
     5.6532   6.0590

          k =-0.0625 0.3248 0.0000 (  5488 PWs)   bands (ev):

    -8.5819  -7.0716  -6.7748  -6.2923  -5.6383  -4.8198  -3.8462  -2.7290
    -1.4663  -0.2693   1.2249   1.8562   2.5736   3.1811   3.6472   3.9419
     4.4903   4.5500

          k =-0.2500 0.2165 0.0000 (  5488 PWs)   bands (ev):

    -8.5853  -7.0716  -6.7746  -6.2917  -5.6372  -4.8180  -3.8434  -2.7251
    -1.4614  -0.2671   1.2121   1.6652   2.5576   3.1317   3.5456   3.9526
     4.2912   4.6472

          k =-0.0625 0.3969 0.0000 (  5490 PWs)   bands (ev):

    -7.8410  -6.1344  -5.8431  -5.3683  -4.7236  -3.9173  -2.9614  -1.8737
    -0.6839   0.3542   0.8562   1.1571   1.4957   1.9426   2.4511   2.7032
     3.3672   3.8222

          k =-0.3125 0.2526 0.0000 (  5490 PWs)   bands (ev):

    -7.8363  -6.1342  -5.8424  -5.3665  -4.7204  -3.9119  -2.9528  -1.8610
    -0.6701   0.2141   0.6349   1.0995   1.4282   1.9408   2.4748   2.6968
     3.3503   3.8017

          k =-0.0625 0.4691 0.0000 (  5501 PWs)   bands (ev):

    -7.0936  -5.0187  -4.7368  -4.2763  -3.6518  -2.8792  -1.9967  -1.1314
    -0.6922  -0.4615  -0.3775   0.1484   0.8250   1.1139   1.6958   1.8550
     2.5985   3.3463

          k =-0.3750 0.2887 0.0000 (  5501 PWs)   bands (ev):

    -7.0642  -5.0182  -4.7347  -4.2716  -3.6430  -2.8644  -1.9812  -1.2354
    -0.6868  -0.6033  -0.3421  -0.0488   0.5344   1.1646   1.6768   1.8977
     2.6247   3.3350

          k =-0.0625 0.5413 0.0000 (  5499 PWs)   bands (ev):

    -6.5593  -3.7326  -3.4738  -3.0620  -2.5617  -2.2874  -2.0578  -1.8688
    -1.5861  -1.2675  -0.9659  -0.3920   0.2929   0.8257   1.1147   1.9520
     2.1547   3.0284

          k =-0.4375 0.3248 0.0000 (  5499 PWs)   bands (ev):

    -6.4891  -3.7314  -3.4692  -3.0526  -2.5602  -2.3000  -2.1633  -1.8947
    -1.5404  -1.3641  -0.8740  -0.6883   0.0055   0.7730   1.1563   1.8915
     2.2354   2.9880

          k =-0.1250 0.2165 0.0000 (  5513 PWs)   bands (ev):

    -9.3072  -7.9208  -7.6199  -7.1318  -6.4714  -5.6454  -4.6624  -3.5331
    -2.2532  -1.0418   0.4943   1.9064   2.8017   3.8156   5.0602   5.9956
     6.5750   6.7277

          k =-0.1250 0.2887 0.0000 (  5487 PWs)   bands (ev):

    -8.7387  -7.2599  -6.9620  -6.4780  -5.8223  -5.0017  -4.0253  -2.9044
    -1.6356  -0.4352   1.0850   2.1465   2.6335   3.8774   4.5135   4.7987
     5.0568   5.4470

          k =-0.1875 0.2526 0.0000 (  5487 PWs)   bands (ev):

    -8.7404  -7.2598  -6.9619  -6.4779  -5.8220  -5.0012  -4.0244  -2.9032
    -1.6341  -0.4346   1.0834   2.1152   2.5993   3.7994   4.3959   4.8258
     5.0032   5.4205

          k =-0.1250 0.3608 0.0000 (  5494 PWs)   bands (ev):

    -8.0493  -6.4147  -6.1215  -5.6438  -4.9954  -4.1841  -3.2203  -2.1174
    -0.8831   0.2863   1.2985   1.7696   2.2768   2.6748   3.1768   3.5239
     3.7503   4.3446

          k =-0.2500 0.2887 0.0000 (  5494 PWs)   bands (ev):

    -8.0489  -6.4147  -6.1211  -5.6430  -4.9940  -4.1817  -3.2164  -2.1117
    -0.8752   0.2881   1.0646   1.7281   2.2738   2.6707   3.1477   3.5212
     3.7135   4.3444

          k =-0.1250 0.4330 0.0000 (  5496 PWs)   bands (ev):

    -7.3015  -5.3893  -5.1032  -4.6360  -4.0011  -3.2094  -2.2798  -1.2514
    -0.2832   0.2876   0.4457   0.8132   1.3238   1.5922   1.9684   2.6605
     2.9889   3.4987

          k =-0.3125 0.3248 0.0000 (  5496 PWs)   bands (ev):

    -7.2882  -5.3890  -5.1020  -4.6334  -3.9963  -3.2013  -2.2665  -1.2368
    -0.3877   0.1555   0.4301   0.6619   1.1360   1.6391   2.0126   2.6961
     2.9958   3.5344

          k =-0.1250 0.5052 0.0000 (  5491 PWs)   bands (ev):

    -6.6428  -4.1886  -3.9161  -3.4726  -2.8782  -2.1750  -1.4907  -1.2468
    -1.0376  -0.7814  -0.5515   0.0175   0.6376   1.1171   1.5997   1.9786
     2.5791   2.9717

          k =-0.3750 0.3608 0.0000 (  5491 PWs)   bands (ev):

    -6.5964  -4.1878  -3.9131  -3.4655  -2.8653  -2.1662  -1.6010  -1.2590
    -1.0150  -0.8795  -0.5030  -0.2284   0.3631   1.1125   1.5893   2.0234
     2.5926   3.0234

          k =-0.4375 0.3969 0.0000 (  5460 PWs)   bands (ev):

    -6.2823  -2.8546  -2.8115  -2.6698  -2.5312  -2.3575  -2.1312  -1.8364
    -1.4507  -1.2585  -0.7074  -0.6237   0.1606   0.8228   1.4650   1.7543
     2.6463   2.9014

          k =-0.1875 0.3248 0.0000 (  5509 PWs)   bands (ev):

    -8.1209  -6.5083  -6.2143  -5.7357  -5.0860  -4.2727  -3.3060  -2.1987
    -0.9543   0.2269   1.4625   1.7933   2.9467   3.4742   3.6438   3.8483
     4.1486   4.2239

          k =-0.1875 0.3969 0.0000 (  5493 PWs)   bands (ev):

    -7.4133  -5.5749  -5.2868  -4.8164  -4.1772  -3.3785  -2.4343  -1.3669
    -0.2328   0.6598   1.2436   1.6434   1.9405   2.3648   2.7233   2.8901
     3.0751   3.3641

          k =-0.2500 0.3608 0.0000 (  5493 PWs)   bands (ev):

    -7.4096  -5.5748  -5.2864  -4.8156  -4.1757  -3.3759  -2.4301  -1.3606
    -0.2312   0.5472   1.1363   1.6150   1.9179   2.4029   2.7615   2.9285
     3.0753   3.3599

          k =-0.1875 0.4691 0.0000 (  5470 PWs)   bands (ev):

    -6.7176  -4.4639  -4.1855  -3.7309  -3.1152  -2.3566  -1.4996  -0.6694
    -0.1616   0.0595   0.1344   0.6314   1.2523   1.5321   2.0301   2.3021
     2.5871   2.7729

          k =-0.3125 0.3969 0.0000 (  5470 PWs)   bands (ev):

    -6.6958  -4.4635  -4.1841  -3.7276  -3.1087  -2.3459  -1.4922  -0.7613
    -0.1634  -0.0730   0.1833   0.4457   1.0029   1.6164   2.0947   2.3344
     2.6160   2.8561

          k =-0.1875 0.5413 0.0000 (  5454 PWs)   bands (ev):

    -6.2458  -3.1832  -2.9294  -2.5259  -2.0326  -1.7458  -1.5135  -1.3375
    -1.0546  -0.7347  -0.4518   0.1193   0.7720   1.2799   1.5190   2.1955
     2.3501   2.5379

          k =-0.3750 0.4330 0.0000 (  5454 PWs)   bands (ev):

    -6.1872  -3.1821  -2.9250  -2.5169  -2.0304  -1.7618  -1.6243  -1.3566
    -1.0162  -0.8308  -0.3596  -0.1885   0.4900   1.2260   1.6150   2.1745
     2.4052   2.5680

          k =-0.2500 0.4330 0.0000 (  5491 PWs)   bands (ev):

    -6.7410  -4.5557  -4.2755  -3.8175  -3.1955  -2.4242  -1.5343  -0.6114
     0.1395   0.8652   1.1757   1.2085   1.2744   1.4209   1.7166   2.1073
     2.4038   2.5458

          k =-0.2500 0.5052 0.0000 (  5430 PWs)   bands (ev):

    -6.1913  -3.3628  -3.0981  -2.6682  -2.0953  -1.4268  -0.7532  -0.4536
    -0.2443  -0.0099   0.1808   0.6547   0.8552   0.9701   1.2447   1.3616
     1.7413   2.0782

          k =-0.3125 0.4691 0.0000 (  5430 PWs)   bands (ev):

    -6.1705  -3.3625  -3.0967  -2.6648  -2.0897  -1.4297  -0.8364  -0.4614
    -0.2414  -0.0910   0.2423   0.4544   0.8815   0.9641   1.1750   1.3687
     1.7698   2.0987

          k =-0.3750 0.5052 0.0000 (  5430 PWs)   bands (ev):

    -5.9318  -2.0367  -1.9964  -1.8547  -1.7274  -1.5533  -1.3407  -1.0294
    -0.6897  -0.4655   0.0019   0.1160   0.7291   0.8347   1.0729   1.2981
     1.4905   1.7123

          k =-0.3125 0.5413 0.0000 (  5411 PWs)   bands (ev):

    -5.8676  -2.0963  -1.8608  -1.4909  -1.0357  -0.7024  -0.6833  -0.5631
    -0.4427  -0.3180  -0.1517   0.0642   0.2319   0.3484   0.5940   0.7203
     1.0536   1.5527

     the Fermi energy is     2.1060 ev

!    total energy              =    -113.13806406 Ry
     Harris-Foulkes estimate   =    -113.13806891 Ry
     estimated scf accuracy    <       0.00000641 Ry

     The total energy is the sum of the following terms:

     one-electron contribution =   -1214.98336157 Ry
     hartree contribution      =     615.34098509 Ry
     xc contribution           =     -91.05291715 Ry
     ewald contribution        =     577.55604991 Ry
     smearing contrib. (-TS)   =       0.00117966 Ry

     convergence has been achieved in   7 iterations

     negative rho (up, down):  2.673E-05 0.000E+00

     Forces acting on atoms (cartesian axes, Ry/au):

     atom    1 type  1   force =    -0.00006284    0.00003628   -0.00168930
     atom    2 type  1   force =     0.00013113   -0.00007571    0.00239342
     atom    3 type  1   force =    -0.00000020    0.00000012   -0.00218583
     atom    4 type  1   force =     0.00012372   -0.00007143    0.00000882
     atom    5 type  1   force =     0.00009124   -0.00005268    0.00045082
     atom    6 type  1   force =    -0.00017619    0.00010172    0.00029687
     atom    7 type  1   force =    -0.00046688    0.00026956   -0.00852108
     atom    8 type  1   force =    -0.00417839    0.00241239   -0.00794557
     atom    9 type  1   force =     0.00150252   -0.00086748   -0.00018947
     atom   10 type  2   force =     0.00303590   -0.00175278    0.01738132

     Total force =     0.022147     Total SCF correction =     0.004292
     SCF correction compared to forces is large: reduce conv_thr to get better values


     Computing stress (Cartesian axis) and pressure


     negative rho (up, down):  2.673E-05 0.000E+00
          total   stress  (Ry/bohr**3)                   (kbar)     P=   19.39
   0.00009336   0.00017134   0.00000178         13.73     25.21      0.26
   0.00017134   0.00029121  -0.00000103         25.21     42.84     -0.15
   0.00000178  -0.00000103   0.00001086          0.26     -0.15      1.60


     number of scf cycles    =   2
     number of bfgs steps    =   1

     energy   old            =    -113.1376778881 Ry
     energy   new            =    -113.1380640598 Ry

     CASE: energy  _new < energy  _old


     WARNING: bfgs curvature condition failed, Theta= 0.696
     uphill step: resetting bfgs history

     new trust radius        =       0.0158891452 bohr
     new conv_thr            =       0.0000003476 Ry


ATOMIC_POSITIONS (crystal)
Al       0.333318405   0.666681495   0.111063443
Al       0.666697376   0.333302524   0.055621588
Al       0.000000099  -0.000000099  -0.000055552
Al       0.333360478   0.666639422   0.277777710
Al       0.666688685   0.333311215   0.222234757
Al      -0.000042335   0.000042335   0.166674460
Al       0.333266661   0.666733239   0.444285951
Al       0.665682986   0.334316914   0.388687677
Al       0.000360813  -0.000360813   0.333334127
H        0.833999833   0.166000167   0.444820221



     Writing output data file Al_H23_et0_3_3.save/
     NEW-OLD atomic charge density approx. for the potential

     negative rho (up, down):  2.833E-05 0.000E+00

     total cpu time spent up to now is     1547.1 secs

     Self-consistent Calculation

     iteration #  1     ecut=    30.00 Ry     beta= 0.30
     Davidson diagonalization with overlap
     ethr =  1.00E-06,  avg # of iterations =  4.3

     negative rho (up, down):  1.689E-05 0.000E+00

     total cpu time spent up to now is     1614.9 secs

     total energy              =    -113.13869613 Ry
     Harris-Foulkes estimate   =    -113.13890628 Ry
     estimated scf accuracy    <       0.02803637 Ry

     iteration #  2     ecut=    30.00 Ry     beta= 0.30
     Davidson diagonalization with overlap
     ethr =  1.00E-04,  avg # of iterations =  1.0

     negative rho (up, down):  3.607E-06 0.000E+00

     total cpu time spent up to now is     1652.6 secs

     total energy              =    -113.13830345 Ry
     Harris-Foulkes estimate   =    -113.13872364 Ry
     estimated scf accuracy    <       0.01504054 Ry

     iteration #  3     ecut=    30.00 Ry     beta= 0.30
     Davidson diagonalization with overlap
     ethr =  5.37E-05,  avg # of iterations =  1.1

     negative rho (up, down):  2.879E-06 0.000E+00

     total cpu time spent up to now is     1691.8 secs

     total energy              =    -113.13852760 Ry
     Harris-Foulkes estimate   =    -113.13853013 Ry
     estimated scf accuracy    <       0.00007101 Ry

     iteration #  4     ecut=    30.00 Ry     beta= 0.30
     Davidson diagonalization with overlap
     ethr =  2.54E-07,  avg # of iterations =  4.7

     negative rho (up, down):  2.782E-06 0.000E+00

     total cpu time spent up to now is     1739.6 secs

     total energy              =    -113.13855477 Ry
     Harris-Foulkes estimate   =    -113.13855575 Ry
     estimated scf accuracy    <       0.00006874 Ry

     iteration #  5     ecut=    30.00 Ry     beta= 0.30
     Davidson diagonalization with overlap
     ethr =  2.46E-07,  avg # of iterations =  1.0

     negative rho (up, down):  2.104E-06 0.000E+00

     total cpu time spent up to now is     1777.3 secs

     total energy              =    -113.13855349 Ry
     Harris-Foulkes estimate   =    -113.13855503 Ry
     estimated scf accuracy    <       0.00002574 Ry

     iteration #  6     ecut=    30.00 Ry     beta= 0.30
     Davidson diagonalization with overlap
     ethr =  9.19E-08,  avg # of iterations =  1.3

     negative rho (up, down):  1.974E-06 0.000E+00

     total cpu time spent up to now is     1814.5 secs

     total energy              =    -113.13855400 Ry
     Harris-Foulkes estimate   =    -113.13855413 Ry
     estimated scf accuracy    <       0.00000234 Ry

     iteration #  7     ecut=    30.00 Ry     beta= 0.30
     Davidson diagonalization with overlap
     ethr =  8.36E-09,  avg # of iterations =  2.8

     negative rho (up, down):  2.121E-06 0.000E+00

     total cpu time spent up to now is     1855.7 secs

     total energy              =    -113.13855342 Ry
     Harris-Foulkes estimate   =    -113.13855429 Ry
     estimated scf accuracy    <       0.00002060 Ry

     iteration #  8     ecut=    30.00 Ry     beta= 0.30
     Davidson diagonalization with overlap
     ethr =  8.36E-09,  avg # of iterations =  2.5

     negative rho (up, down):  2.284E-06 0.000E+00

     total cpu time spent up to now is     1896.5 secs

     total energy              =    -113.13855499 Ry
     Harris-Foulkes estimate   =    -113.13855439 Ry
     estimated scf accuracy    <       0.00001381 Ry

     iteration #  9     ecut=    30.00 Ry     beta= 0.30
     Davidson diagonalization with overlap
     ethr =  8.36E-09,  avg # of iterations =  2.4

     negative rho (up, down):  2.809E-06 0.000E+00

     total cpu time spent up to now is     1936.3 secs

     total energy              =    -113.13855258 Ry
     Harris-Foulkes estimate   =    -113.13855561 Ry
     estimated scf accuracy    <       0.00010859 Ry

     iteration # 10     ecut=    30.00 Ry     beta= 0.30
     Davidson diagonalization with overlap
     ethr =  8.36E-09,  avg # of iterations =  2.9

     negative rho (up, down):  2.676E-05 0.000E+00

     total cpu time spent up to now is     1976.6 secs

     End of self-consistent calculation

          k = 0.0000 0.0000 0.0000 (  5537 PWs)   bands (ev):

   -10.3024  -9.0417  -8.7374  -8.2434  -7.5759  -6.7435  -5.7522  -4.6135
    -3.3263  -2.0862  -0.5475   0.9188   2.2300   3.4856   4.8519   5.8148
     5.9045   6.3550

          k = 0.0000 0.0722 0.0000 (  5524 PWs)   bands (ev):

   -10.2156  -8.9464  -8.6424  -8.1488  -7.4819  -6.6501  -5.6594  -4.5213
    -3.2346  -1.9971  -0.4578   1.0059   2.3053   3.5485   4.9193   5.9066
     5.9887   6.4120

          k = 0.0000 0.1443 0.0000 (  5500 PWs)   bands (ev):

    -9.9568  -8.6606  -8.3577  -7.8656  -7.2003  -6.3704  -5.3818  -4.2459
    -2.9609  -1.7310  -0.1906   1.2652   2.5168   3.7108   5.0884   6.1690
     6.1974   6.5323

          k = 0.0000 0.2165 0.0000 (  5496 PWs)   bands (ev):

    -9.5328  -8.1857  -7.8847  -7.3952  -6.7327  -5.9061  -4.9213  -3.7894
    -2.5083  -1.2897   0.2505   1.6839   2.7654   3.8426   5.1768   6.1278
     6.4291   6.6138

          k = 0.0000 0.2887 0.0000 (  5490 PWs)   bands (ev):

    -8.9572  -7.5234  -7.2255  -6.7399  -6.0820  -5.2606  -4.2820  -3.1575
    -1.8857  -0.6793   0.8502   2.1340   2.6019   3.7273   4.3852   4.6050
     4.9637   5.3459

          k = 0.0000 0.3608 0.0000 (  5482 PWs)   bands (ev):

    -8.2572  -6.6766  -6.3832  -5.9037  -5.2527  -4.4398  -3.4727  -2.3645
    -1.1212   0.0616   1.2720   1.5795   2.0477   2.4609   2.9942   3.3125
     3.6543   4.2221

          k = 0.0000 0.4330 0.0000 (  5488 PWs)   bands (ev):

    -7.4930  -5.6492  -5.3628  -4.8932  -4.2548  -3.4600  -2.5232  -1.4795
    -0.4732   0.0595   0.2077   0.5922   1.1187   1.3546   1.7629   2.4839
     2.8190   3.3941

          k = 0.0000 0.5052 0.0000 (  5504 PWs)   bands (ev):

    -6.8075  -4.4463  -4.1730  -3.7258  -3.1241  -2.4117  -1.7265  -1.4947
    -1.2890  -1.0291  -0.7891  -0.2177   0.4058   0.9022   1.3690   1.7888
     2.3549   2.8422

          k = 0.0000-0.5774 0.0000 (  5484 PWs)   bands (ev):

    -6.5017  -3.1096  -3.0713  -2.9166  -2.8123  -2.5739  -2.2942  -2.0403
    -1.7500  -1.4096  -1.0832  -0.5259   0.2675   0.5490   1.3118   1.4738
     2.4936   2.6984

          k = 0.0625 0.1083 0.0000 (  5511 PWs)   bands (ev):

   -10.0421  -8.7558  -8.4526  -7.9600  -7.2940  -6.4635  -5.4743  -4.3376
    -3.0519  -1.8195  -0.2793   1.1790   2.4475   3.6621   5.0434   6.0884
     6.1428   6.5130

          k = 0.0625 0.1804 0.0000 (  5519 PWs)   bands (ev):

    -9.7004  -8.3755  -8.0737  -7.5831  -6.9195  -6.0916  -5.1053  -3.9715
    -2.6885  -1.4656   0.0751   1.5189   2.6917   3.8312   5.2154   6.2904
     6.4338   6.7132

          k = 0.0625 0.2526 0.0000 (  5496 PWs)   bands (ev):

    -9.2003  -7.8069  -7.5076  -7.0203  -6.3603  -5.5366  -4.5551  -3.4270
    -2.1503  -0.9389   0.5983   1.9929   2.8103   3.9007   5.0735   5.5887
     5.7304   5.9950

          k = 0.0625 0.3248 0.0000 (  5488 PWs)   bands (ev):

    -8.5615  -7.0523  -6.7568  -6.2745  -5.6202  -4.8031  -3.8299  -2.7126
    -1.4511  -0.2521   1.2480   1.9961   2.5970   3.2048   3.6809   3.9642
     4.4921   4.6109

          k = 0.0625 0.3969 0.0000 (  5490 PWs)   bands (ev):

    -7.8246  -6.1151  -5.8253  -5.3506  -4.7054  -3.9002  -2.9444  -1.8553
    -0.6610   0.4038   0.9092   1.1882   1.5298   1.9709   2.4768   2.7341
     3.4030   3.8423

          k = 0.0625 0.4691 0.0000 (  5501 PWs)   bands (ev):

    -7.0809  -4.9996  -4.7189  -4.2584  -3.6324  -2.8592  -1.9727  -1.0947
    -0.6724  -0.4411  -0.3519   0.1767   0.8558   1.1338   1.7285   1.8705
     2.6390   3.3630

          k = 0.0625 0.5413 0.0000 (  5499 PWs)   bands (ev):

    -6.5437  -3.7134  -3.4553  -3.0415  -2.5367  -2.2686  -2.0395  -1.8450
    -1.5692  -1.2479  -0.9443  -0.3740   0.3170   0.8349   1.1451   1.9574
     2.1865   3.0371

          k = 0.1250 0.2165 0.0000 (  5513 PWs)   bands (ev):

    -9.2822  -7.9015  -7.6018  -7.1139  -6.4533  -5.6289  -4.6465  -3.5172
    -2.2391  -1.0261   0.5130   1.9243   2.8627   3.9584   5.3187   6.3001
     6.5479   6.7733

          k = 0.1250 0.2887 0.0000 (  5487 PWs)   bands (ev):

    -8.7171  -7.2405  -6.9440  -6.4604  -5.8045  -4.9855  -4.0097  -2.8888
    -1.6212  -0.4183   1.1072   2.3156   2.7587   3.9459   4.5965   4.8406
     5.1517   5.4053

          k = 0.1250 0.3608 0.0000 (  5494 PWs)   bands (ev):

    -8.0344  -6.3955  -6.1037  -5.6264  -4.9778  -4.1679  -3.2044  -2.1005
    -0.8634   0.3175   1.5398   1.8307   2.2993   2.7027   3.2310   3.5233
     3.8575   4.3419

          k = 0.1250 0.4330 0.0000 (  5496 PWs)   bands (ev):

    -7.2951  -5.3701  -5.0855  -4.6185  -3.9827  -3.1912  -2.2589  -1.2188
    -0.2042   0.3326   0.4758   0.8591   1.3861   1.6131   2.0271   2.7312
     3.0113   3.5930

          k = 0.1250 0.5052 0.0000 (  5491 PWs)   bands (ev):

    -6.6384  -4.1694  -3.8978  -3.4531  -2.8538  -2.1416  -1.4514  -1.2221
    -1.0223  -0.7601  -0.5211   0.0451   0.6718   1.1678   1.5917   2.0479
     2.5779   3.0701

          k = 0.1250 0.5774 0.0000 (  5460 PWs)   bands (ev):

    -6.3417  -2.8353  -2.7974  -2.6434  -2.5409  -2.3021  -2.0219  -1.7677
    -1.4835  -1.1409  -0.8220  -0.2642   0.5230   0.8053   1.5393   1.7193
     2.6648   2.8919

          k = 0.1875 0.3248 0.0000 (  5509 PWs)   bands (ev):

    -8.1060  -6.4891  -6.1967  -5.7186  -5.0690  -4.2576  -3.2917  -2.1841
    -0.9381   0.2530   1.7145   2.1017   2.9356   3.4697   3.7297   4.0151
     4.2349   4.2422

          k = 0.1875 0.3969 0.0000 (  5493 PWs)   bands (ev):

    -7.4111  -5.5559  -5.2694  -4.7996  -4.1601  -3.3624  -2.4171  -1.3426
    -0.1733   0.8758   1.4242   1.7075   2.0280   2.3870   2.7424   2.9668
     3.1481   3.2977

          k = 0.1875 0.4691 0.0000 (  5470 PWs)   bands (ev):

    -6.7252  -4.4448  -4.1678  -3.7128  -3.0941  -2.3303  -1.4543  -0.5728
    -0.1359   0.0889   0.1781   0.6936   1.3500   1.5986   2.1316   2.3185
     2.5737   2.8086

          k = 0.1875 0.5413 0.0000 (  5454 PWs)   bands (ev):

    -6.2415  -3.1636  -2.9087  -2.4988  -1.9948  -1.7273  -1.4963  -1.3001
    -1.0408  -0.7128  -0.4213   0.1377   0.8365   1.2563   1.6339   2.1245
     2.4467   2.5756

          k = 0.2500 0.4330 0.0000 (  5491 PWs)   bands (ev):

    -6.7595  -4.5368  -4.2584  -3.8009  -3.1776  -2.4040  -1.5005  -0.5118
     0.4173   1.0218   1.1980   1.2326   1.3465   1.5768   1.8075   2.0252
     2.4001   2.4966

          k = 0.2500 0.5052 0.0000 (  5430 PWs)   bands (ev):

    -6.2086  -3.3435  -3.0789  -2.6452  -2.0603  -1.3630  -0.6587  -0.4221
    -0.2379   0.0260   0.2457   0.7048   0.9165   1.0610   1.2585   1.4138
     1.7626   2.0181

          k = 0.2500 0.5774 0.0000 (  5430 PWs)   bands (ev):

    -5.9642  -2.0177  -1.9815  -1.8286  -1.7330  -1.4920  -1.2194  -0.9615
    -0.7079  -0.3498  -0.0738   0.4454   0.7347   0.9294   1.1784   1.2867
     1.5548   1.6977

          k = 0.3125 0.5413 0.0000 (  5411 PWs)   bands (ev):

    -5.8756  -2.0757  -1.8353  -1.4494  -0.9684  -0.6887  -0.6393  -0.4916
    -0.3970  -0.2689  -0.1639   0.0004   0.3032   0.3563   0.5767   0.8120
     1.1931   1.5855

          k =-0.0625 0.0361 0.0000 (  5524 PWs)   bands (ev):

   -10.2163  -8.9464  -8.6424  -8.1488  -7.4819  -6.6501  -5.6594  -4.5213
    -3.2346  -1.9971  -0.4578   1.0064   2.3080   3.5509   4.9180   5.9064
     5.9875   6.4057

          k =-0.1250 0.0722 0.0000 (  5500 PWs)   bands (ev):

    -9.9595  -8.6606  -8.3578  -7.8656  -7.2002  -6.3703  -5.3816  -4.2456
    -2.9606  -1.7310  -0.1908   1.2675   2.5307   3.7169   5.0632   6.1070
     6.1873   6.4587

          k =-0.1875 0.1083 0.0000 (  5496 PWs)   bands (ev):

    -9.5378  -8.1857  -7.8847  -7.3951  -6.7325  -5.9057  -4.9206  -3.7885
    -2.5075  -1.2897   0.2496   1.6921   2.8035   3.7759   4.9223   5.8364
     6.4652   6.6117

          k =-0.2500 0.1443 0.0000 (  5490 PWs)   bands (ev):

    -8.9627  -7.5234  -7.2253  -6.7396  -6.0812  -5.2593  -4.2801  -3.1551
    -1.8831  -0.6788   0.8465   2.1313   2.4696   3.5829   4.1971   4.6329
     4.8535   5.3639

          k =-0.3125 0.1804 0.0000 (  5482 PWs)   bands (ev):

    -8.2579  -6.6765  -6.3827  -5.9026  -5.2506  -4.4364  -3.4675  -2.3574
    -1.1129   0.0619   0.9630   1.4981   2.0387   2.4476   2.9512   3.3145
     3.5712   4.2847

          k =-0.3750 0.2165 0.0000 (  5488 PWs)   bands (ev):

    -7.4763  -5.6488  -5.3614  -4.8901  -4.2494  -3.4510  -2.5093  -1.4653
    -0.5892  -0.0844   0.1847   0.4228   0.9054   1.4007   1.7805   2.4945
     2.8181   3.3938

          k =-0.4375 0.2526 0.0000 (  5504 PWs)   bands (ev):

    -6.7545  -4.4454  -4.1699  -3.7188  -3.1120  -2.4050  -1.8446  -1.5086
    -1.2634  -1.1279  -0.7479  -0.4637   0.1290   0.8841   1.3616   1.8109
     2.3696   2.8551

          k = 0.5000-0.2887 0.0000 (  5484 PWs)   bands (ev):

    -6.4202  -3.1115  -3.0661  -2.9251  -2.7848  -2.6086  -2.3805  -2.0878
    -1.6965  -1.5083  -0.9506  -0.8638  -0.0714   0.5863   1.2444   1.5327
     2.4774   2.7314

          k =-0.0625 0.1083 0.0000 (  5511 PWs)   bands (ev):

   -10.0440  -8.7558  -8.4526  -7.9600  -7.2940  -6.4635  -5.4742  -4.3374
    -3.0517  -1.8195  -0.2795   1.1804   2.4556   3.6658   5.0322   6.0842
     6.1275   6.4701

          k =-0.0625 0.1804 0.0000 (  5519 PWs)   bands (ev):

    -9.7028  -8.3755  -8.0737  -7.5831  -6.9194  -6.0914  -5.1050  -3.9712
    -2.6883  -1.4658   0.0747   1.5215   2.7004   3.8130   5.1525   6.1501
     6.4385   6.6747

          k =-0.1250 0.1443 0.0000 (  5519 PWs)   bands (ev):

    -9.7048  -8.3755  -8.0737  -7.5831  -6.9194  -6.0913  -5.1048  -3.9710
    -2.6880  -1.4657   0.0745   1.5239   2.7158   3.8085   5.0869   6.0067
     6.4409   6.6471

          k =-0.0625 0.2526 0.0000 (  5496 PWs)   bands (ev):

    -9.2020  -7.8068  -7.5076  -7.0202  -6.3601  -5.5363  -4.5547  -3.4266
    -2.1501  -0.9393   0.5973   1.9936   2.7643   3.8404   5.0194   5.5783
     5.6881   5.9847

          k =-0.1875 0.1804 0.0000 (  5496 PWs)   bands (ev):

    -9.2059  -7.8068  -7.5075  -7.0201  -6.3598  -5.5357  -4.5538  -3.4255
    -2.1489  -0.9390   0.5961   2.0075   2.7620   3.7082   4.7764   5.4748
     5.6718   6.0763

[...]
     6.6181   7.0630

          k = 0.0625 0.2526 0.0000 (  5496 PWs)   bands (ev):

    -7.9873  -7.6689  -7.3394  -6.8433  -6.2051  -5.4724  -4.5819  -3.5304
    -2.3491  -1.1079   0.3461   1.8176   3.3330   4.7021   5.3784   5.5895
     5.8048   6.2070

          k = 0.0625 0.3248 0.0000 (  5488 PWs)   bands (ev):

    -7.2619  -6.9163  -6.5900  -6.0993  -5.4678  -4.7421  -3.8587  -2.8153
    -1.6482  -0.4193   0.9836   2.3033   3.1050   3.5289   3.7422   4.2028
     4.3527   4.8302

          k = 0.0625 0.3969 0.0000 (  5490 PWs)   bands (ev):

    -6.3785  -5.9817  -5.6607  -5.1788  -4.5581  -3.8440  -2.9732  -1.9477
    -0.8209   0.3265   1.0771   1.3047   1.7108   2.2361   2.4176   2.9200
     3.4470   3.7351

          k = 0.0625 0.4691 0.0000 (  5501 PWs)   bands (ev):

    -5.3816  -4.8698  -4.5586  -4.0941  -3.4965  -2.8081  -1.9761  -1.0558
    -0.5789  -0.3779  -0.2583   0.1676   0.8017   1.2820   1.6392   1.9670
     2.6353   3.1890

          k = 0.0625 0.5413 0.0000 (  5499 PWs)   bands (ev):

    -4.4698  -3.5891  -3.3058  -2.9082  -2.4338  -2.1429  -1.9124  -1.8023
    -1.5126  -1.1948  -0.9174  -0.4214   0.3154   0.8100   1.1419   1.7469
     2.1725   2.8961

          k = 0.1250 0.2165 0.0000 (  5513 PWs)   bands (ev):

    -8.0789  -7.7633  -7.4334  -6.9367  -6.2978  -5.5642  -4.6729  -3.6204
    -2.4377  -1.1952   0.2623   1.7405   3.2753   4.7382   5.8361   6.2175
     6.6855   6.8695

          k = 0.1250 0.2887 0.0000 (  5487 PWs)   bands (ev):

    -7.4417  -7.1040  -6.7768  -6.2847  -5.6513  -4.9236  -4.0380  -2.9920
    -1.8202  -0.5867   0.8433   2.2702   3.6405   4.4516   4.6507   4.9597
     5.2590   5.5029

          k = 0.1250 0.3608 0.0000 (  5494 PWs)   bands (ev):

    -6.6389  -6.2612  -5.9384  -5.4533  -4.8286  -4.1102  -3.2342  -2.2001
    -1.0512   0.1574   1.4286   2.2142   2.5676   2.9919   3.2934   3.5608
     3.9669   4.5640

          k = 0.1250 0.4330 0.0000 (  5496 PWs)   bands (ev):

    -5.6974  -5.2390  -4.9234  -4.4507  -3.8418  -3.1399  -2.2845  -1.2864
    -0.2492   0.4303   0.5683   0.8874   1.3993   1.7577   2.2158   2.6755
     2.9937   3.6531

          k = 0.1250 0.5052 0.0000 (  5491 PWs)   bands (ev):

    -4.7103  -4.0426  -3.7425  -3.3006  -2.7353  -2.0866  -1.3605  -1.1524
    -0.9414  -0.7081  -0.4630  -0.0087   0.6850   1.2259   1.4545   2.0765
     2.4664   3.0382

          k = 0.1250 0.5774 0.0000 (  5460 PWs)   bands (ev):

    -4.1364  -2.7135  -2.6771  -2.5220  -2.4042  -2.1933  -1.9091  -1.7297
    -1.4189  -1.0754  -0.8228  -0.3021   0.4355   0.9253   1.3328   1.7689
     2.4122   2.8692

          k = 0.1875 0.3248 0.0000 (  5509 PWs)   bands (ev):

    -6.7265  -6.3545  -6.0311  -5.5451  -4.9193  -4.1994  -3.3217  -2.2853
    -1.1310   0.0866   1.4381   2.6640   3.4491   3.7579   3.7770   4.0584
     4.3026   4.3458

          k = 0.1875 0.3969 0.0000 (  5493 PWs)   bands (ev):

    -5.8606  -5.4240  -5.1065  -4.6304  -4.0170  -3.3101  -2.4472  -1.4321
    -0.3255   0.7950   1.5661   1.8111   2.2043   2.6773   2.7572   3.0564
     3.3239   3.4958

          k = 0.1875 0.4691 0.0000 (  5470 PWs)   bands (ev):

    -4.8977  -4.3166  -4.0100  -3.5541  -2.9669  -2.2873  -1.4656  -0.5585
    -0.0498   0.1461   0.2665   0.6678   1.2839   1.7946   2.0263   2.4145
     2.7805   2.8260

          k = 0.1875 0.5413 0.0000 (  5454 PWs)   bands (ev):

    -4.0543  -3.0405  -2.7635  -2.3762  -1.9026  -1.6012  -1.3683  -1.2748
    -0.9859  -0.6644  -0.4011   0.0852   0.8028   1.3047   1.6019   2.1133
     2.4774   2.6571

          k = 0.2500 0.4330 0.0000 (  5491 PWs)   bands (ev):

    -4.9656  -4.4081  -4.1000  -3.6405  -3.0479  -2.3617  -1.5261  -0.5640
     0.3806   1.0454   1.3210   1.3339   1.4446   1.6137   1.9063   2.2824
     2.4612   2.6344

          k = 0.2500 0.5052 0.0000 (  5430 PWs)   bands (ev):

    -4.0759  -3.2192  -2.9297  -2.5081  -1.9648  -1.3289  -0.6094  -0.3585
    -0.1483   0.0656   0.2952   0.6754   1.0258   1.1646   1.3232   1.5404
     1.9050   2.1170

          k = 0.2500 0.5774 0.0000 (  5430 PWs)   bands (ev):

    -3.6141  -1.8955  -1.8618  -1.7068  -1.5979  -1.3800  -1.1261  -0.9369
    -0.6524  -0.2962  -0.0652   0.4024   0.9240   0.9902   1.2257   1.4304
     1.6708   1.7574

          k = 0.3125 0.5413 0.0000 (  5411 PWs)   bands (ev):

    -3.4823  -1.9558  -1.7025  -1.3573  -0.8992  -0.5619  -0.5107  -0.4363
    -0.2920  -0.2307  -0.0143   0.0506   0.3341   0.4475   0.6292   0.8607
     1.2496   1.6812

          k =-0.0625 0.0361 0.0000 (  5524 PWs)   bands (ev):

    -9.0962  -8.8058  -8.4723  -7.9697  -7.3234  -6.5816  -5.6825  -4.6223
    -3.4274  -2.1693  -0.6979   0.8056   2.3757   3.8866   5.1167   5.8202
     6.0531   6.6122

          k =-0.1250 0.0722 0.0000 (  5500 PWs)   bands (ev):

    -8.8170  -8.5207  -8.1881  -7.6870  -7.0426  -6.3030  -5.4060  -4.3478
    -3.1561  -1.9026  -0.4330   1.0656   2.6299   4.1369   5.3707   6.0748
     6.3375   6.8592

          k =-0.1875 0.1083 0.0000 (  5496 PWs)   bands (ev):

    -8.3545  -8.0469  -7.7159  -7.2175  -6.5764  -5.8406  -4.9471  -3.8927
    -2.7069  -1.4605   0.0027   1.4895   3.0333   4.5078   5.6719   6.1940
     6.6214   6.7430

          k =-0.2500 0.1443 0.0000 (  5490 PWs)   bands (ev):

    -7.7136  -7.3862  -7.0578  -6.5637  -5.9279  -5.1978  -4.3101  -3.2618
    -2.0867  -0.8504   0.5904   2.0306   3.3848   4.1328   4.5577   4.7340
     5.1347   5.4424

          k =-0.3125 0.1804 0.0000 (  5482 PWs)   bands (ev):

    -6.9042  -6.5416  -6.2173  -5.7298  -5.1023  -4.3811  -3.5024  -2.4661
    -1.3148  -0.1030   1.1894   1.9402   2.2383   2.7042   3.1961   3.3134
     3.7921   4.3977

          k =-0.3750 0.2165 0.0000 (  5488 PWs)   bands (ev):

    -5.9499  -5.5171  -5.1995  -4.7235  -4.1110  -3.4062  -2.5475  -1.5481
    -0.5150   0.2021   0.2945   0.5497   1.0421   1.5404   2.0040   2.5472
     2.7564   3.4623

          k =-0.4375 0.2526 0.0000 (  5504 PWs)   bands (ev):

    -4.9337  -4.3183  -4.0151  -3.5678  -2.9977  -2.3481  -1.6426  -1.4375
    -1.1828  -0.9903  -0.6794  -0.3785   0.2902   1.0052   1.3119   1.8700
     2.2622   2.8220

          k = 0.5000-0.2887 0.0000 (  5484 PWs)   bands (ev):

    -4.3193  -2.9855  -2.9512  -2.7988  -2.6670  -2.4542  -2.2422  -2.0080
    -1.6462  -1.3584  -1.0325  -0.6784   0.0303   0.7211   1.1827   1.5498
     2.2529   2.6520

          k =-0.0625 0.1083 0.0000 (  5511 PWs)   bands (ev):

    -8.9099  -8.6157  -8.2828  -7.7812  -7.1361  -6.3957  -5.4980  -4.4391
    -3.2462  -1.9912  -0.5209   0.9796   2.5464   4.0555   5.2885   5.9939
     6.2432   6.7841

          k =-0.0625 0.1804 0.0000 (  5519 PWs)   bands (ev):

    -8.5391  -8.2362  -7.9046  -7.4050  -6.7626  -6.0252  -5.1303  -4.0742
    -2.8855  -1.6363  -0.1699   1.3227   2.8795   4.3793   5.6077   6.2996
     6.6173   7.0576

          k =-0.1250 0.1443 0.0000 (  5519 PWs)   bands (ev):

    -8.5391  -8.2362  -7.9046  -7.4050  -6.7626  -6.0253  -5.1304  -4.0743
    -2.8857  -1.6366  -0.1702   1.3223   2.8779   4.3760   5.6043   6.2892
     6.6163   7.0276

          k =-0.0625 0.2526 0.0000 (  5496 PWs)   bands (ev):

    -7.9873  -7.6689  -7.3394  -6.8433  -6.2052  -5.4724  -4.5819  -3.5306
    -2.3499  -1.1086   0.3455   1.8167   3.3301   4.6986   5.3709   5.5853
     5.8019   6.2056

          k =-0.1875 0.1804 0.0000 (  5496 PWs)   bands (ev):

    -7.9872  -7.6689  -7.3394  -6.8434  -6.2052  -5.4725  -4.5821  -3.5309
    -2.3506  -1.1097   0.3442   1.8149   3.3197   4.6543   5.3410   5.6357
     5.8052   6.2408

          k =-0.0625 0.3248 0.0000 (  5488 PWs)   bands (ev):

    -7.2617  -6.9163  -6.5900  -6.0993  -5.4679  -4.7422  -3.8588  -2.8156
    -1.6491  -0.4205   0.9825   2.3019   3.1036   3.5279   3.7390   4.2006
     4.3469   4.8289

          k =-0.2500 0.2165 0.0000 (  5488 PWs)   bands (ev):

    -7.2614  -6.9163  -6.5900  -6.0993  -5.4679  -4.7423  -3.8591  -2.8164
    -1.6516  -0.4239   0.9790   2.2924   3.0356   3.4566   3.8350   4.1950
     4.3988   4.8235

          k =-0.0625 0.3969 0.0000 (  5490 PWs)   bands (ev):

    -6.3781  -5.9817  -5.6607  -5.1787  -4.5581  -3.8442  -2.9735  -1.9483
    -0.8225   0.3246   1.0764   1.3042   1.7104   2.2362   2.4147   2.9185
     3.4429   3.7352

          k =-0.3125 0.2526 0.0000 (  5490 PWs)   bands (ev):

    -6.3767  -5.9816  -5.6606  -5.1786  -4.5581  -3.8442  -2.9738  -1.9504
    -0.8301   0.3160   1.0947   1.2564   1.6274   2.1651   2.5778   2.8935
     3.5398   3.6748

          k =-0.0625 0.4691 0.0000 (  5501 PWs)   bands (ev):

    -5.3809  -4.8698  -4.5585  -4.0940  -3.4967  -2.8085  -1.9767  -1.0574
    -0.5794  -0.3782  -0.2587   0.1670   0.8013   1.2814   1.6377   1.9659
     2.6334   3.1887

          k =-0.3750 0.2887 0.0000 (  5501 PWs)   bands (ev):

    -5.3756  -4.8696  -4.5581  -4.0933  -3.4959  -2.8082  -1.9783  -1.0748
    -0.5563  -0.4191  -0.2060   0.0668   0.6729   1.3482   1.6911   2.0083
     2.6598   3.1870

          k =-0.0625 0.5413 0.0000 (  5499 PWs)   bands (ev):

    -4.4690  -3.5890  -3.3058  -2.9085  -2.4344  -2.1429  -1.9126  -1.8027
    -1.5125  -1.1951  -0.9174  -0.4215   0.3151   0.8099   1.1412   1.7460
     2.1718   2.8946

          k =-0.4375 0.3248 0.0000 (  5499 PWs)   bands (ev):

    -4.4515  -3.5884  -3.3043  -2.9061  -2.4330  -2.1284  -1.9803  -1.8007
    -1.4816  -1.2061  -0.8694  -0.5395   0.1642   0.8663   1.2215   1.8030
     2.1875   2.8939

          k =-0.1250 0.2165 0.0000 (  5513 PWs)   bands (ev):

    -8.0788  -7.7633  -7.4334  -6.9367  -6.2979  -5.5643  -4.6731  -3.6209
    -2.4388  -1.1965   0.2610   1.7389   3.2691   4.7246   5.8157   6.1704
     6.7016   6.8483

          k =-0.1250 0.2887 0.0000 (  5487 PWs)   bands (ev):

    -7.4415  -7.1040  -6.7768  -6.2847  -5.6514  -4.9237  -4.0383  -2.9927
    -1.8219  -0.5888   0.8412   2.2671   3.6293   4.4482   4.6321   4.9580
     5.2235   5.4833

          k =-0.1875 0.2526 0.0000 (  5487 PWs)   bands (ev):

    -7.4414  -7.1040  -6.7768  -6.2847  -5.6514  -4.9238  -4.0384  -2.9929
    -1.8226  -0.5898   0.8401   2.2645   3.6021   4.3631   4.7234   4.9481
     5.2614   5.5082

          k =-0.1250 0.3608 0.0000 (  5494 PWs)   bands (ev):

    -6.6384  -6.2612  -5.9383  -5.4532  -4.8286  -4.1104  -3.2346  -2.2012
    -1.0540   0.1541   1.4251   2.2118   2.5653   2.9908   3.2818   3.5621
     3.9535   4.5185

          k =-0.2500 0.2887 0.0000 (  5494 PWs)   bands (ev):

    -6.6378  -6.2612  -5.9383  -5.4532  -4.8287  -4.1104  -3.2348  -2.2020
    -1.0572   0.1496   1.4237   2.1885   2.4907   2.9515   3.4164   3.5294
     3.9911   4.5113

          k =-0.1250 0.4330 0.0000 (  5496 PWs)   bands (ev):

    -5.6963  -5.2389  -4.9233  -4.4506  -3.8419  -3.1403  -2.2853  -1.2885
    -0.2545   0.4286   0.5675   0.8859   1.3977   1.7572   2.2103   2.6701
     2.9911   3.6340

          k =-0.3125 0.3248 0.0000 (  5496 PWs)   bands (ev):

    -5.6938  -5.2388  -4.9231  -4.4503  -3.8415  -3.1401  -2.2857  -1.2921
    -0.2682   0.4601   0.5589   0.8075   1.2941   1.8023   2.2549   2.7431
     2.9902   3.6337

          k =-0.1250 0.5052 0.0000 (  5491 PWs)   bands (ev):

    -4.7084  -4.0426  -3.7425  -3.3007  -2.7359  -2.0878  -1.3629  -1.1530
    -0.9412  -0.7088  -0.4640  -0.0093   0.6839   1.2227   1.4534   2.0726
     2.4632   3.0312

          k =-0.3750 0.3608 0.0000 (  5491 PWs)   bands (ev):

    -4.6991  -4.0423  -3.7417  -3.2992  -2.7344  -2.0883  -1.3831  -1.1675
    -0.9142  -0.7240  -0.4168  -0.1214   0.5435   1.2515   1.5690   2.0991
     2.5040   3.0237

          k =-0.4375 0.3969 0.0000 (  5460 PWs)   bands (ev):

    -4.1143  -2.7111  -2.6774  -2.5251  -2.3955  -2.1799  -1.9769  -1.7374
    -1.3817  -1.0916  -0.7715  -0.4197   0.2823   0.9760   1.4300   1.7917
     2.4722   2.8500

          k =-0.1875 0.3248 0.0000 (  5509 PWs)   bands (ev):

    -6.7257  -6.3545  -6.0311  -5.5451  -4.9193  -4.1996  -3.3222  -2.2867
    -1.1352   0.0815   1.4325   2.6488   3.4009   3.7149   3.8258   4.0138
     4.2770   4.3406

          k =-0.1875 0.3969 0.0000 (  5493 PWs)   bands (ev):

    -5.8589  -5.4239  -5.1064  -4.6303  -4.0170  -3.3105  -2.4482  -1.4348
    -0.3330   0.7859   1.5616   1.8087   2.1993   2.6840   2.7407   3.0256
     3.2685   3.4706

          k =-0.2500 0.3608 0.0000 (  5493 PWs)   bands (ev):

    -5.8582  -5.4239  -5.1063  -4.6302  -4.0169  -3.3104  -2.4483  -1.4357
    -0.3367   0.7829   1.5771   1.7658   2.1136   2.6080   2.9038   3.0460
     3.3097   3.4674

          k =-0.1875 0.4691 0.0000 (  5470 PWs)   bands (ev):

    -4.8948  -4.3165  -4.0099  -3.5540  -2.9672  -2.2885  -1.4681  -0.5659
    -0.0515   0.1450   0.2642   0.6650   1.2817   1.7899   2.0166   2.3990
     2.7551   2.8338

          k =-0.3125 0.3969 0.0000 (  5470 PWs)   bands (ev):

    -4.8909  -4.3163  -4.0096  -3.5534  -2.9666  -2.2884  -1.4697  -0.5805
    -0.0243   0.1048   0.3201   0.5678   1.1562   1.8098   2.1241   2.4230
     2.7533   2.8967

          k =-0.1875 0.5413 0.0000 (  5454 PWs)   bands (ev):

    -4.0515  -3.0405  -2.7636  -2.3772  -1.9049  -1.6013  -1.3687  -1.2767
    -0.9850  -0.6654  -0.4014   0.0847   0.8001   1.3075   1.5910   2.1150
     2.4698   2.6641

          k =-0.3750 0.4330 0.0000 (  5454 PWs)   bands (ev):

    -4.0370  -3.0400  -2.7624  -2.3752  -1.9035  -1.5868  -1.4434  -1.2654
    -0.9531  -0.6757  -0.3517  -0.0308   0.6507   1.3368   1.6790   2.1770
     2.4615   2.6759

          k =-0.2500 0.4330 0.0000 (  5491 PWs)   bands (ev):

    -4.9612  -4.4080  -4.0997  -3.6402  -3.0480  -2.3628  -1.5290  -0.5734
     0.3601   1.0643   1.3181   1.3362   1.4288   1.5663   1.8457   2.2158
     2.4660   2.6657

          k =-0.2500 0.5052 0.0000 (  5430 PWs)   bands (ev):

    -4.0697  -3.2190  -2.9295  -2.5085  -1.9670  -1.3338  -0.6194  -0.3586
    -0.1461   0.0644   0.2881   0.6773   1.0436   1.1380   1.3542   1.4873
     1.8393   2.1122

          k =-0.3125 0.4691 0.0000 (  5430 PWs)   bands (ev):

    -4.0652  -3.2189  -2.9292  -2.5078  -1.9665  -1.3350  -0.6381  -0.3611
    -0.1210   0.0513   0.3407   0.5804   1.0060   1.1058   1.2977   1.4834
     1.8721   2.2248

          k =-0.3750 0.5052 0.0000 (  5430 PWs)   bands (ev):

    -3.5996  -1.8935  -1.8618  -1.7100  -1.5875  -1.3661  -1.2026  -0.9336
    -0.6120  -0.3115  -0.0105   0.2967   0.8676   0.9413   1.1916   1.3949
     1.6111   1.8409

          k =-0.3125 0.5413 0.0000 (  5411 PWs)   bands (ev):

    -3.4750  -1.9555  -1.7029  -1.3615  -0.9083  -0.5569  -0.5141  -0.4451
    -0.2904  -0.2436  -0.0298   0.1024   0.3125   0.4633   0.6480   0.8238
     1.1523   1.6652

     the Fermi energy is     2.2384 ev

!    total energy              =    -113.28092293 Ry
     Harris-Foulkes estimate   =    -113.28092295 Ry
     estimated scf accuracy    <       0.00000005 Ry

     The total energy is the sum of the following terms:

     one-electron contribution =   -1182.19132427 Ry
     hartree contribution      =     599.03599570 Ry
     xc contribution           =     -90.89509973 Ry
     ewald contribution        =     560.76957458 Ry
     smearing contrib. (-TS)   =      -0.00006920 Ry

     convergence has been achieved in   6 iterations

     negative rho (up, down):  2.292E-05 0.000E+00

     Forces acting on atoms (cartesian axes, Ry/au):

     atom    1 type  1   force =    -0.00004298    0.00002481   -0.00025846
     atom    2 type  1   force =     0.00006659   -0.00003845    0.00046224
     atom    3 type  1   force =    -0.00000094    0.00000054    0.00024038
     atom    4 type  1   force =    -0.00037390    0.00021587   -0.00062642
     atom    5 type  1   force =    -0.00006672    0.00003852    0.00065603
     atom    6 type  1   force =    -0.00002183    0.00001260   -0.00027137
     atom    7 type  1   force =     0.00088890   -0.00051321    0.00000050
     atom    8 type  1   force =    -0.00023734    0.00013703   -0.00051606
     atom    9 type  1   force =    -0.00071298    0.00041164    0.00028930
     atom   10 type  2   force =     0.00050119   -0.00028936    0.00002387

     Total force =     0.001982     Total SCF correction =     0.000267
     SCF correction compared to forces is large: reduce conv_thr to get better values


     Computing stress (Cartesian axis) and pressure


     negative rho (up, down):  2.292E-05 0.000E+00
          total   stress  (Ry/bohr**3)                   (kbar)     P=   -6.07
  -0.00004795   0.00000263   0.00000755         -7.05      0.39      1.11
   0.00000263  -0.00004491  -0.00000436          0.39     -6.61     -0.64
   0.00000755  -0.00000436  -0.00003091          1.11     -0.64     -4.55


     bfgs converged in  45 scf cycles and  44 bfgs steps
     (criteria: energy <  1.0E-04 Ry, force <  1.0E-03 Ry/Bohr)

     End of BFGS Geometry Optimization

     Final energy   =    -113.2809229277 Ry
Begin final coordinates

ATOMIC_POSITIONS (crystal)
Al       0.334581159   0.665418741   0.108184394
Al       0.668921019   0.331078881   0.052623429
Al       0.001359764  -0.001359764  -0.003586645
Al       0.330251297   0.669748603   0.275576167
Al       0.663917116   0.336082784   0.219945917
Al      -0.000012198   0.000012198   0.164354042
Al       0.278126454   0.721873446   0.442074438
Al       0.629139271   0.370860629   0.388019430
Al      -0.007956683   0.007956683   0.331232102
H        0.935005802   0.064994198   0.466021110
End final coordinates



     Writing output data file Al_H23_et0_3_3.save/

     init_run     :     29.96s CPU     32.01s WALL (       1 calls)
     electrons    :  18329.76s CPU  20963.69s WALL (      45 calls)
     update_pot   :     27.35s CPU     27.75s WALL (      44 calls)
     forces       :    337.62s CPU    347.07s WALL (      45 calls)
     stress       :    555.78s CPU    562.50s WALL (      45 calls)

     Called by init_run:
     wfcinit      :     28.61s CPU     30.66s WALL (       1 calls)
     potinit      :      0.37s CPU      0.37s WALL (       1 calls)
     hinit0       :      0.78s CPU      0.78s WALL (       1 calls)

     Called by electrons:
     c_bands      :  14761.77s CPU  16909.71s WALL (     470 calls)
     sum_band     :   2248.18s CPU   2629.19s WALL (     470 calls)
     v_of_rho     :     82.17s CPU     85.27s WALL (     515 calls)
     newd         :     52.28s CPU     52.87s WALL (     515 calls)
     mix_rho      :   1187.48s CPU   1287.78s WALL (     470 calls)

     Called by c_bands:
     init_us_2    :    209.82s CPU    240.31s WALL (   75263 calls)
     cegterg      :  14440.52s CPU  16564.97s WALL (   34310 calls)

     Called by sum_band:
     sum_band:bec :      1.65s CPU      1.91s WALL (   34310 calls)
     addusdens    :     47.56s CPU     47.83s WALL (     470 calls)

     Called by *egterg:
     h_psi        :   7580.21s CPU   9505.47s WALL (  112377 calls)
     s_psi        :   1596.87s CPU   1650.76s WALL (  112377 calls)
     g_psi        :     69.56s CPU     78.74s WALL (   77994 calls)
     cdiaghg      :    160.68s CPU    179.87s WALL (  109092 calls)

     Called by h_psi:
     h_psi:pot    :   7546.65s CPU   9462.09s WALL (  112377 calls)
     h_psi:calbec :   1680.70s CPU   1757.56s WALL (  112377 calls)
     vloc_psi     :   4258.43s CPU   6056.50s WALL (  112377 calls)
     add_vuspsi   :   1603.36s CPU   1643.52s WALL (  112377 calls)

     General routines
     calbec       :   2747.12s CPU   2850.43s WALL (  163112 calls)
     fft          :     62.21s CPU     65.29s WALL (    7774 calls)
     ffts         :    564.01s CPU    628.26s WALL (  176626 calls)
     fftw         :   2852.03s CPU   3986.98s WALL ( 3537178 calls)
     interpolate  :      6.74s CPU      7.52s WALL (     515 calls)

     Parallel routines

     PWSCF        :      5h21m CPU      6h 5m WALL


   This run was terminated on:  12:14:29   7Jun2020            

=------------------------------------------------------------------------------=
   JOB DONE.
=------------------------------------------------------------------------------=
