
     Program PWSCF v.6.4.1 starts on 29May2020 at 14:27:39 

     This program is part of the open-source Quantum ESPRESSO suite
     for quantum simulation of materials; please cite
         "P. Giannozzi et al., J. Phys.:Condens. Matter 21 395502 (2009);
         "P. Giannozzi et al., J. Phys.:Condens. Matter 29 465901 (2017);
          URL http://www.quantum-espresso.org", 
     in publications or presentations arising from this work. More details at
     http://www.quantum-espresso.org/quote

     Parallel version (MPI), running on     1 processors

     MPI processes distributed on     1 nodes
     Reading input from Al_111_surf_vslab_5.pw.in

     Current dimensions of program PWSCF are:
     Max number of different atomic species (ntypx) = 10
     Max number of k-points (npk) =  40000
     Max angular momentum in pseudopotentials (lmaxx) =  3

     Subspace diagonalization in iterative solution of the eigenvalue problem:
     a serial algorithm will be used


     G-vector sticks info
     --------------------
     sticks:   dense  smooth     PW     G-vecs:    dense   smooth      PW
     Sum         301     301    211                92359    92359   53503



     bravais-lattice index     =            4
     lattice parameter (alat)  =       5.3760  a.u.
     unit-cell volume          =    2966.3784 (a.u.)^3
     number of atoms/cell      =           15
     number of atomic types    =            1
     number of electrons       =        45.00
     number of Kohn-Sham states=           28
     kinetic-energy cutoff     =      90.0000  Ry
     charge density cutoff     =     150.0000  Ry
     convergence threshold     =      1.5E-05
     mixing beta               =       0.3000
     number of iterations used =            8  local-TF  mixing
     Exchange-correlation      =  SLA  PW   PBE  PBE ( 1  4  3  4 0 0)
     nstep                     =           50


     celldm(1)=   5.376000  celldm(2)=   0.000000  celldm(3)=  22.045408
     celldm(4)=   0.000000  celldm(5)=   0.000000  celldm(6)=   0.000000

     crystal axes: (cart. coord. in units of alat)
               a(1) = (   1.000000   0.000000   0.000000 )  
               a(2) = (  -0.500000   0.866025   0.000000 )  
               a(3) = (   0.000000   0.000000  22.045408 )  

     reciprocal axes: (cart. coord. in units 2 pi/alat)
               b(1) = (  1.000000  0.577350 -0.000000 )  
               b(2) = (  0.000000  1.154701  0.000000 )  
               b(3) = (  0.000000 -0.000000  0.045361 )  


     PseudoPot. # 1 for Al read from file:
     ./Al.pbe-n-van.UPF
     MD5 check sum: b11ded24487aef5bc42d5c7a2e22a7b6
     Pseudo is Ultrasoft + core correction, Zval =  3.0
     Generated by new atomic code, or converted to UPF format
     Using radial grid of  893 points,  2 beta functions with: 
                l(1) =   0
                l(2) =   1
     Q(r) pseudized with  8 coefficients,  rinner =    0.900   0.900   0.900


     atomic species   valence    mass     pseudopotential
        Al             3.00    26.98000     Al( 1.00)

      6 Sym. Ops. (no inversion) found



   Cartesian axes

     site n.     atom                  positions (alat units)
         1           Al  tau(   1) = (   0.4999999   0.2886751   0.8164965  )
         2           Al  tau(   2) = (   0.0000000   0.0000000   0.0000000  )
         3           Al  tau(   3) = (   0.0000000   0.5773502   1.6329930  )
         4           Al  tau(   4) = (   0.4999999   0.2886751   3.2659862  )
         5           Al  tau(   5) = (   0.0000000   0.0000000   2.4494897  )
         6           Al  tau(   6) = (   0.0000000   0.5773502   4.0824827  )
         7           Al  tau(   7) = (   0.4999999   0.2886751   5.7154760  )
         8           Al  tau(   8) = (   0.0000000   0.0000000   4.8989795  )
         9           Al  tau(   9) = (   0.0000000   0.5773502   6.5319725  )
        10           Al  tau(  10) = (   0.4999999   0.2886751   8.1649657  )
        11           Al  tau(  11) = (   0.0000000   0.0000000   7.3484692  )
        12           Al  tau(  12) = (   0.0000000   0.5773502   8.9814622  )
        13           Al  tau(  13) = (   0.4999999   0.2886751  10.6144555  )
        14           Al  tau(  14) = (   0.0000000   0.0000000   9.7979590  )
        15           Al  tau(  15) = (   0.0000000   0.5773502  11.4309520  )

     number of k points=    30  Marzari-Vanderbilt smearing, width (Ry)=  0.0250
                       cart. coord. in units 2pi/alat
        k(    1) = (   0.0000000   0.0000000   0.0000000), wk =   0.0078125
        k(    2) = (   0.0000000   0.0721688   0.0000000), wk =   0.0468750
        k(    3) = (   0.0000000   0.1443376   0.0000000), wk =   0.0468750
        k(    4) = (   0.0000000   0.2165064   0.0000000), wk =   0.0468750
        k(    5) = (   0.0000000   0.2886751   0.0000000), wk =   0.0468750
        k(    6) = (   0.0000000   0.3608439   0.0000000), wk =   0.0468750
        k(    7) = (   0.0000000   0.4330127   0.0000000), wk =   0.0468750
        k(    8) = (   0.0000000   0.5051815   0.0000000), wk =   0.0468750
        k(    9) = (   0.0000000  -0.5773503   0.0000000), wk =   0.0234375
        k(   10) = (   0.0625000   0.1082532   0.0000000), wk =   0.0468750
        k(   11) = (   0.0625000   0.1804220   0.0000000), wk =   0.0937500
        k(   12) = (   0.0625000   0.2525907   0.0000000), wk =   0.0937500
        k(   13) = (   0.0625000   0.3247595   0.0000000), wk =   0.0937500
        k(   14) = (   0.0625000   0.3969283   0.0000000), wk =   0.0937500
        k(   15) = (   0.0625000   0.4690971   0.0000000), wk =   0.0937500
        k(   16) = (   0.0625000   0.5412659   0.0000000), wk =   0.0937500
        k(   17) = (   0.1250000   0.2165064   0.0000000), wk =   0.0468750
        k(   18) = (   0.1250000   0.2886751   0.0000000), wk =   0.0937500
        k(   19) = (   0.1250000   0.3608439   0.0000000), wk =   0.0937500
        k(   20) = (   0.1250000   0.4330127   0.0000000), wk =   0.0937500
        k(   21) = (   0.1250000   0.5051815   0.0000000), wk =   0.0937500
        k(   22) = (   0.1250000   0.5773503   0.0000000), wk =   0.0468750
        k(   23) = (   0.1875000   0.3247595   0.0000000), wk =   0.0468750
        k(   24) = (   0.1875000   0.3969283   0.0000000), wk =   0.0937500
        k(   25) = (   0.1875000   0.4690971   0.0000000), wk =   0.0937500
        k(   26) = (   0.1875000   0.5412659   0.0000000), wk =   0.0937500
        k(   27) = (   0.2500000   0.4330127   0.0000000), wk =   0.0468750
        k(   28) = (   0.2500000   0.5051815   0.0000000), wk =   0.0937500
        k(   29) = (   0.2500000   0.5773503   0.0000000), wk =   0.0468750
        k(   30) = (   0.3125000   0.5412659   0.0000000), wk =   0.0468750

     Dense  grid:    92359 G-vectors     FFT dimensions: (  24,  24, 480)

     Estimated max dynamical RAM per process >     882.97 MB

     Initial potential from superposition of free atoms

     starting charge   44.96302, renormalised to   45.00000

     negative rho (up, down):  4.634E-05 0.000E+00
     Starting wfcs are   60 randomized atomic wfcs

     total cpu time spent up to now is      185.3 secs

     Self-consistent Calculation

     iteration #  1     ecut=    90.00 Ry     beta= 0.30
     Davidson diagonalization with overlap
     ethr =  1.00E-02,  avg # of iterations =  3.1

     negative rho (up, down):  1.815E-08 0.000E+00

     total cpu time spent up to now is      519.0 secs

     total energy              =    -186.98224503 Ry
     Harris-Foulkes estimate   =    -187.01018843 Ry
     estimated scf accuracy    <       1.44026793 Ry

     iteration #  2     ecut=    90.00 Ry     beta= 0.30
     Davidson diagonalization with overlap
     ethr =  3.20E-03,  avg # of iterations =  1.0

     total cpu time spent up to now is      706.9 secs

     total energy              =    -186.90305893 Ry
     Harris-Foulkes estimate   =    -186.99215513 Ry
     estimated scf accuracy    <       1.05502275 Ry

     iteration #  3     ecut=    90.00 Ry     beta= 0.30
     Davidson diagonalization with overlap
     ethr =  2.34E-03,  avg # of iterations =  1.6

     total cpu time spent up to now is      897.6 secs

     total energy              =    -186.93883851 Ry
     Harris-Foulkes estimate   =    -186.94604776 Ry
     estimated scf accuracy    <       0.04377252 Ry

     iteration #  4     ecut=    90.00 Ry     beta= 0.30
     Davidson diagonalization with overlap
     ethr =  9.73E-05,  avg # of iterations =  6.1

     total cpu time spent up to now is     1168.9 secs

     total energy              =    -186.94600129 Ry
     Harris-Foulkes estimate   =    -186.94793556 Ry
     estimated scf accuracy    <       0.09383783 Ry

     iteration #  5     ecut=    90.00 Ry     beta= 0.30
     Davidson diagonalization with overlap
     ethr =  9.73E-05,  avg # of iterations =  1.2

     total cpu time spent up to now is     1357.3 secs

     total energy              =    -186.94223705 Ry
     Harris-Foulkes estimate   =    -186.94646681 Ry
     estimated scf accuracy    <       0.04043831 Ry

     iteration #  6     ecut=    90.00 Ry     beta= 0.30
     Davidson diagonalization with overlap
     ethr =  8.99E-05,  avg # of iterations =  2.8

     total cpu time spent up to now is     1560.1 secs

     total energy              =    -186.94494630 Ry
     Harris-Foulkes estimate   =    -186.94473966 Ry
     estimated scf accuracy    <       0.05713279 Ry

     iteration #  7     ecut=    90.00 Ry     beta= 0.30
     Davidson diagonalization with overlap
     ethr =  8.99E-05,  avg # of iterations =  2.7

     total cpu time spent up to now is     1759.4 secs

     total energy              =    -186.94310470 Ry
     Harris-Foulkes estimate   =    -186.94671123 Ry
     estimated scf accuracy    <       0.29359679 Ry

     iteration #  8     ecut=    90.00 Ry     beta= 0.30
     Davidson diagonalization with overlap
     ethr =  8.99E-05,  avg # of iterations =  1.4

     total cpu time spent up to now is     1949.7 secs

     total energy              =    -186.93691337 Ry
     Harris-Foulkes estimate   =    -186.94385902 Ry
     estimated scf accuracy    <       0.12320226 Ry

     iteration #  9     ecut=    90.00 Ry     beta= 0.30
     Davidson diagonalization with overlap
     ethr =  8.99E-05,  avg # of iterations =  3.2

     negative rho (up, down):  2.689E-06 0.000E+00

     total cpu time spent up to now is     2186.2 secs

     total energy              =    -186.94440940 Ry
     Harris-Foulkes estimate   =    -186.94713887 Ry
     estimated scf accuracy    <       0.28483778 Ry

     iteration # 10     ecut=    90.00 Ry     beta= 0.30
     Davidson diagonalization with overlap
     ethr =  8.99E-05,  avg # of iterations =  1.2

     negative rho (up, down):  6.099E-03 0.000E+00

     total cpu time spent up to now is     2376.3 secs

     total energy              =    -186.93321933 Ry
     Harris-Foulkes estimate   =    -186.94477149 Ry
     estimated scf accuracy    <       0.16970437 Ry

     iteration # 11     ecut=    90.00 Ry     beta= 0.30
     Davidson diagonalization with overlap
     ethr =  8.99E-05,  avg # of iterations =  3.6

     negative rho (up, down):  6.738E-03 0.000E+00

     total cpu time spent up to now is     2620.0 secs

     total energy              =    -186.94857189 Ry
     Harris-Foulkes estimate   =    -186.94805994 Ry
     estimated scf accuracy    <       0.40190594 Ry

     iteration # 12     ecut=    90.00 Ry     beta= 0.30
     Davidson diagonalization with overlap
     ethr =  8.99E-05,  avg # of iterations =  1.0

     negative rho (up, down):  1.358E-02 0.000E+00

     total cpu time spent up to now is     2808.0 secs

     total energy              =    -186.93301307 Ry
     Harris-Foulkes estimate   =    -186.94862677 Ry
     estimated scf accuracy    <       0.43924696 Ry

     iteration # 13     ecut=    90.00 Ry     beta= 0.30
     Davidson diagonalization with overlap
     ethr =  8.99E-05,  avg # of iterations =  3.9

     negative rho (up, down):  1.266E-02 0.000E+00

     total cpu time spent up to now is     3046.0 secs

     total energy              =    -186.94243129 Ry
     Harris-Foulkes estimate   =    -186.94310232 Ry
     estimated scf accuracy    <       0.03618329 Ry

     iteration # 14     ecut=    90.00 Ry     beta= 0.30
     Davidson diagonalization with overlap
     ethr =  8.04E-05,  avg # of iterations =  1.0

     negative rho (up, down):  1.360E-02 0.000E+00

     total cpu time spent up to now is     3232.1 secs

     total energy              =    -186.94303526 Ry
     Harris-Foulkes estimate   =    -186.94259079 Ry
     estimated scf accuracy    <       0.01518801 Ry

     iteration # 15     ecut=    90.00 Ry     beta= 0.30
     Davidson diagonalization with overlap
     ethr =  3.38E-05,  avg # of iterations =  1.0

     negative rho (up, down):  1.006E-02 0.000E+00

     total cpu time spent up to now is     3421.0 secs

     total energy              =    -186.94027535 Ry
     Harris-Foulkes estimate   =    -186.94312513 Ry
     estimated scf accuracy    <       0.03143073 Ry

     iteration # 16     ecut=    90.00 Ry     beta= 0.30
     Davidson diagonalization with overlap
     ethr =  3.38E-05,  avg # of iterations =  3.4

     negative rho (up, down):  1.143E-02 0.000E+00

     total cpu time spent up to now is     3647.5 secs

     total energy              =    -186.94896351 Ry
     Harris-Foulkes estimate   =    -186.94321354 Ry
     estimated scf accuracy    <       0.05315814 Ry

     iteration # 17     ecut=    90.00 Ry     beta= 0.30
     Davidson diagonalization with overlap
     ethr =  3.38E-05,  avg # of iterations =  4.4

     negative rho (up, down):  9.821E-03 0.000E+00

     total cpu time spent up to now is     3918.2 secs

     total energy              =    -186.92617818 Ry
     Harris-Foulkes estimate   =    -186.95697684 Ry
     estimated scf accuracy    <       0.79054177 Ry

     iteration # 18     ecut=    90.00 Ry     beta= 0.30
     Davidson diagonalization with overlap
     ethr =  3.38E-05,  avg # of iterations =  4.6

     negative rho (up, down):  1.251E-02 0.000E+00

     total cpu time spent up to now is     4213.0 secs

     total energy              =    -186.94168502 Ry
     Harris-Foulkes estimate   =    -186.94185572 Ry
     estimated scf accuracy    <       0.00666300 Ry

     iteration # 19     ecut=    90.00 Ry     beta= 0.30
     Davidson diagonalization with overlap
     ethr =  1.48E-05,  avg # of iterations =  1.3

     negative rho (up, down):  8.292E-03 0.000E+00

     total cpu time spent up to now is     4403.1 secs

     total energy              =    -186.94145901 Ry
     Harris-Foulkes estimate   =    -186.94177137 Ry
     estimated scf accuracy    <       0.00067027 Ry

     iteration # 20     ecut=    90.00 Ry     beta= 0.30
     Davidson diagonalization with overlap
     ethr =  1.49E-06,  avg # of iterations =  5.9

     negative rho (up, down):  7.203E-03 0.000E+00

     total cpu time spent up to now is     4742.9 secs

     total energy              =    -186.94040165 Ry
     Harris-Foulkes estimate   =    -186.94265491 Ry
     estimated scf accuracy    <       0.06834400 Ry

     iteration # 21     ecut=    90.00 Ry     beta= 0.30
     Davidson diagonalization with overlap
     ethr =  1.49E-06,  avg # of iterations =  5.6

     negative rho (up, down):  5.936E-03 0.000E+00

     total cpu time spent up to now is     5065.8 secs

     total energy              =    -186.94153313 Ry
     Harris-Foulkes estimate   =    -186.94153674 Ry
     estimated scf accuracy    <       0.00044473 Ry

     iteration # 22     ecut=    90.00 Ry     beta= 0.30
     Davidson diagonalization with overlap
     ethr =  9.88E-07,  avg # of iterations =  3.9

     negative rho (up, down):  3.296E-03 0.000E+00

     total cpu time spent up to now is     5310.6 secs

     total energy              =    -186.94144625 Ry
     Harris-Foulkes estimate   =    -186.94168761 Ry
     estimated scf accuracy    <       0.00831784 Ry

     iteration # 23     ecut=    90.00 Ry     beta= 0.30
     Davidson diagonalization with overlap
     ethr =  9.88E-07,  avg # of iterations =  4.0

     negative rho (up, down):  1.472E-03 0.000E+00

     total cpu time spent up to now is     5556.7 secs

     total energy              =    -186.94154658 Ry
     Harris-Foulkes estimate   =    -186.94156801 Ry
     estimated scf accuracy    <       0.00003239 Ry

     iteration # 24     ecut=    90.00 Ry     beta= 0.30
     Davidson diagonalization with overlap
     c_bands:  1 eigenvalues not converged
     ethr =  7.20E-08,  avg # of iterations =  5.2

     negative rho (up, down):  5.854E-04 0.000E+00

     total cpu time spent up to now is     5793.7 secs

     total energy              =    -186.94154498 Ry
     Harris-Foulkes estimate   =    -186.94155056 Ry
     estimated scf accuracy    <       0.00018592 Ry

     iteration # 25     ecut=    90.00 Ry     beta= 0.30
     Davidson diagonalization with overlap
     c_bands:  1 eigenvalues not converged
     ethr =  7.20E-08,  avg # of iterations =  3.0

     negative rho (up, down):  4.517E-04 0.000E+00

     total cpu time spent up to now is     6004.9 secs

     total energy              =    -186.94154672 Ry
     Harris-Foulkes estimate   =    -186.94154559 Ry
     estimated scf accuracy    <       0.00008664 Ry

     iteration # 26     ecut=    90.00 Ry     beta= 0.30
     Davidson diagonalization with overlap
     ethr =  7.20E-08,  avg # of iterations =  3.3

     negative rho (up, down):  5.682E-06 0.000E+00

     total cpu time spent up to now is     6208.4 secs

     End of self-consistent calculation

          k = 0.0000 0.0000 0.0000 ( 42639 PWs)   bands (ev):

    -8.5629  -8.4723  -8.3291  -8.1235  -7.8650  -7.5495  -7.1818  -6.7544
    -6.2742  -5.7428  -5.1531  -4.5176  -3.8273  -3.0865  -2.2601  -1.5947
    -0.6612   0.2511   1.1907   2.1568   3.1401   4.1215   5.0640   5.8758
     6.3431   6.5325   6.5826   7.0718

          k = 0.0000 0.0722 0.0000 ( 42542 PWs)   bands (ev):

    -8.4675  -8.3769  -8.2338  -8.0283  -7.7699  -7.4546  -7.0872  -6.6600
    -6.1801  -5.6491  -5.0597  -4.4246  -3.7347  -2.9943  -2.1677  -1.5053
    -0.5714   0.3401   1.2789   2.2439   3.2260   4.2061   5.1480   5.9616
     6.4367   6.6252   6.6766   7.1631

          k = 0.0000 0.1443 0.0000 ( 42560 PWs)   bands (ev):

    -8.1814  -8.0910  -7.9481  -7.7431  -7.4851  -7.1704  -6.8036  -6.3772
    -5.8982  -5.3682  -4.7799  -4.1460  -3.4574  -2.7184  -1.8912  -1.2375
    -0.3028   0.6062   1.5417   2.5028   3.4801   4.4548   5.3921   6.2094
     6.7128   6.8996   6.9558   7.4141

          k = 0.0000 0.2165 0.0000 ( 42572 PWs)   bands (ev):

    -7.7059  -7.6157  -7.4733  -7.2689  -7.0117  -6.6980  -6.3323  -5.9072
    -5.4298  -4.9014  -4.3151  -3.6834  -2.9971  -2.2607  -1.4336  -0.7924
     0.1414   1.0447   1.9723   2.9223   3.8827   4.8292   5.7150   6.4447
     6.9280   7.0598   7.1682   7.2198

          k = 0.0000 0.2887 0.0000 ( 42704 PWs)   bands (ev):

    -7.0427  -6.9529  -6.8112  -6.6076  -6.3515  -6.0392  -5.6752  -5.2521
    -4.7768  -4.2511  -3.6676  -3.0393  -2.3570  -1.6251  -0.8013  -0.1734
     0.7514   1.6380   2.5352   3.4140   4.1503   4.5731   4.8861   5.1018
     5.1828   5.3382   5.6313   5.7514

          k = 0.0000 0.3608 0.0000 ( 42842 PWs)   bands (ev):

    -6.1945  -6.1052  -5.9643  -5.7619  -5.5074  -5.1969  -4.8352  -4.4147
    -3.9427  -3.4207  -2.8418  -2.2191  -1.5439  -0.8220  -0.0150   0.6030
     1.4618   2.1550   2.4399   2.6064   2.8422   3.1344   3.4192   3.5874
     3.7569   3.9644   4.3644   4.4911

          k = 0.0000 0.4330 0.0000 ( 42880 PWs)   bands (ev):

    -5.1647  -5.0761  -4.9362  -4.7353  -4.4829  -4.1750  -3.8165  -3.4000
    -2.9328  -2.4172  -1.8469  -1.2371  -0.5846   0.0856   0.6630   0.6690
     0.7494   0.8545   1.0755   1.3766   1.7084   1.9532   2.1657   2.5130
     2.7766   2.9477   3.4352   3.6001

          k = 0.0000 0.5052 0.0000 ( 42862 PWs)   bands (ev):

    -3.9579  -3.8701  -3.7318  -3.5331  -3.2837  -2.9798  -2.6269  -2.2184
    -1.7648  -1.2853  -1.0354  -0.9418  -0.8248  -0.6898  -0.6303  -0.4080
    -0.1885  -0.1523   0.1702   0.5655   0.9772   1.3699   1.5841   1.8061
     2.3104   2.3739   2.8404   2.9258

          k = 0.0000-0.5774 0.0000 ( 42798 PWs)   bands (ev):

    -2.5821  -2.5808  -2.4966  -2.4947  -2.3622  -2.3600  -2.1723  -2.1691
    -1.9669  -1.8716  -1.6334  -1.5776  -1.2927  -1.2481  -0.9083  -0.8626
    -0.4979  -0.4794  -0.1148   0.2869   0.7471   1.0847   1.4316   1.5291
     2.0767   2.1271   2.7855   2.8073

          k = 0.0625 0.1083 0.0000 ( 42534 PWs)   bands (ev):

    -8.2767  -8.1862  -8.0433  -7.8381  -7.5800  -7.2651  -6.8981  -6.4714
    -5.9921  -5.4617  -4.8731  -4.2388  -3.5497  -2.8102  -1.9832  -1.3267
    -0.3922   0.5177   1.4544   2.4170   3.3961   4.3731   5.3127   6.1294
     6.6221   6.8094   6.8634   7.3430

          k = 0.0625 0.1804 0.0000 ( 42544 PWs)   bands (ev):

    -7.8959  -7.8057  -7.6631  -7.4584  -7.2009  -6.8867  -6.5207  -6.0950
    -5.6169  -5.0879  -4.5008  -3.8682  -3.1810  -2.4434  -1.6161  -0.9702
    -0.0356   0.8703   1.8018   2.7576   3.7277   4.6927   5.6180   6.4298
     6.9698   7.1610   7.2254   7.6127

          k = 0.0625 0.2526 0.0000 ( 42670 PWs)   bands (ev):

    -7.3266  -7.2366  -7.0946  -6.8906  -6.6341  -6.3211  -5.9564  -5.5324
    -5.0562  -4.5293  -3.9446  -3.3148  -2.6306  -1.8966  -1.0706  -0.4377
     0.4929   1.3894   2.3066   3.2386   4.1621   5.0097   5.6231   6.0110
     6.0993   6.2416   6.4276   6.5306

          k = 0.0625 0.3248 0.0000 ( 42782 PWs)   bands (ev):

    -6.5709  -6.4814  -6.3400  -6.1371  -5.8819  -5.5706  -5.2078  -4.7862
    -4.3126  -3.7889  -3.2078  -2.5823  -1.9034  -1.1759  -0.3576   0.2638
     1.1717   2.0271   2.8316   3.3746   3.6388   3.9040   4.1975   4.3409
     4.4816   4.6672   5.0079   5.1441

          k = 0.0625 0.3969 0.0000 ( 42859 PWs)   bands (ev):

    -5.6318  -5.5429  -5.4025  -5.2009  -4.9475  -4.6384  -4.2783  -3.8599
    -3.3902  -2.8713  -2.2962  -1.6786  -1.0111  -0.3021   0.4690   1.0693
     1.5782   1.6220   1.7517   1.9711   2.2516   2.5618   2.8516   3.0448
     3.2802   3.4824   3.8708   4.1196

          k = 0.0625 0.4691 0.0000 ( 42871 PWs)   bands (ev):

    -4.5134  -4.4252  -4.2861  -4.0864  -3.8353  -3.5294  -3.1733  -2.7601
    -2.2974  -1.7885  -1.2298  -0.6461  -0.1276  -0.1124   0.0147   0.0944
     0.2329   0.3669   0.6039   0.9645   1.3629   1.7646   1.9484   2.1849
     2.3461   2.6561   3.1959   3.2928

          k = 0.0625 0.5413 0.0000 ( 42803 PWs)   bands (ev):

    -3.2211  -3.1341  -2.9970  -2.8003  -2.5538  -2.2551  -1.9149  -1.7707
    -1.6918  -1.5645  -1.4561  -1.3323  -1.1100  -1.0342  -0.8169  -0.5902
    -0.4775  -0.2435   0.0064   0.4285   0.8646   1.2225   1.5284   1.6724
     2.1873   2.2428   2.8695   3.0080

          k = 0.1250 0.2165 0.0000 ( 42642 PWs)   bands (ev):

    -7.4213  -7.3313  -7.1892  -6.9851  -6.7284  -6.4152  -6.0503  -5.6260
    -5.1495  -4.6222  -4.0371  -3.4068  -2.7221  -1.9873  -1.1609  -0.5261
     0.4059   1.3050   2.2267   3.1680   4.1149   5.0391   5.8876   6.5678
     7.0168   7.2854   7.2882   7.4002

          k = 0.1250 0.2887 0.0000 ( 42722 PWs)   bands (ev):

    -6.7594  -6.6698  -6.5283  -6.3251  -6.0696  -5.7578  -5.3946  -4.9723
    -4.4980  -3.9734  -3.3913  -2.7646  -2.0841  -1.3544  -0.5325   0.0910
     1.0112   1.8914   2.7791   3.6453   4.3764   4.8038   5.1050   5.3382
     5.3856   5.5756   5.7902   5.8702

          k = 0.1250 0.3608 0.0000 ( 42813 PWs)   bands (ev):

    -5.9129  -5.8238  -5.6831  -5.4811  -5.2271  -4.9173  -4.5564  -4.1369
    -3.6659  -3.1452  -2.5679  -1.9470  -1.2742  -0.5551   0.2478   0.8637
     1.7148   2.4065   2.6994   2.8638   3.0957   3.3826   3.6654   3.8290
     3.9765   4.2037   4.5879   4.6440

          k = 0.1250 0.4330 0.0000 ( 42833 PWs)   bands (ev):

    -4.8851  -4.7967  -4.6571  -4.4567  -4.2048  -3.8976  -3.5400  -3.1246
    -2.6587  -2.1447  -1.5765  -0.9691  -0.3197   0.3467   0.9242   0.9356
     1.0154   1.1183   1.3356   1.6331   1.9624   2.2164   2.4279   2.7723
     2.9928   3.1991   3.6769   3.7691

          k = 0.1250 0.5052 0.0000 ( 42832 PWs)   bands (ev):

    -3.6808  -3.5932  -3.4553  -3.2571  -3.0084  -2.7054  -2.3536  -1.9466
    -1.4949  -1.0182  -0.7652  -0.6704  -0.5548  -0.4227  -0.3610  -0.1399
     0.0742   0.1137   0.4332   0.8261   1.2360   1.6295   1.8399   2.0619
     2.5547   2.6038   3.0821   3.1586

          k = 0.1250 0.5774 0.0000 ( 42796 PWs)   bands (ev):

    -2.3082  -2.3069  -2.2230  -2.2211  -2.0892  -2.0870  -1.9007  -1.8971
    -1.6973  -1.5978  -1.3621  -1.3040  -1.0231  -0.9772  -0.6408  -0.5940
    -0.2331  -0.2142   0.1481   0.5492   1.0065   1.3466   1.6903   1.7827
     2.3246   2.3677   3.0162   3.0252

          k = 0.1875 0.3248 0.0000 ( 42828 PWs)   bands (ev):

    -6.0067  -5.9175  -5.7767  -5.5746  -5.3204  -5.0104  -4.6492  -4.2293
    -3.7580  -3.2368  -2.6587  -2.0369  -1.3626  -0.6412   0.1682   0.7848
     1.6698   2.4921   3.2368   3.7417   3.9720   4.1152   4.2531   4.4002
     4.5633   4.6993   4.7302   4.7598

          k = 0.1875 0.3969 0.0000 ( 42855 PWs)   bands (ev):

    -5.0714  -4.9828  -4.8430  -4.6423  -4.3900  -4.0822  -3.7239  -3.3075
    -2.8404  -2.3245  -1.7533  -1.1406  -0.4795   0.2203   0.9758   1.5723
     2.0930   2.1440   2.2642   2.4734   2.7419   3.0308   3.2849   3.3703
     3.5232   3.5504   3.6956   3.9004

          k = 0.1875 0.4691 0.0000 ( 42859 PWs)   bands (ev):

    -3.9575  -3.8697  -3.7313  -3.5325  -3.2828  -2.9785  -2.6245  -2.2138
    -1.7544  -1.2496  -0.6963  -0.1192   0.4025   0.4232   0.5452   0.6240
     0.7648   0.8916   1.1201   1.4723   1.8587   2.2497   2.3930   2.6519
     2.7950   3.0367   3.2125   3.2630

          k = 0.1875 0.5413 0.0000 ( 42829 PWs)   bands (ev):

    -2.6709  -2.5843  -2.4481  -2.2527  -2.0079  -1.7116  -1.3754  -1.2285
    -1.1510  -1.0246  -0.9122  -0.7889  -0.5712  -0.4975  -0.2804  -0.0609
     0.0544   0.2816   0.5280   0.9445   1.3712   1.7242   2.0087   2.1491
     2.5958   2.6558   3.0693   3.0889

          k = 0.2500 0.4330 0.0000 ( 42872 PWs)   bands (ev):

    -4.0499  -3.9621  -3.8235  -3.6245  -3.3745  -3.0697  -2.7152  -2.3037
    -1.8428  -1.3353  -0.7761  -0.1820   0.4459   1.0749   1.6158   1.7243
     1.7260   1.7894   1.8028   1.8544   1.8779   1.9721   2.1167   2.3022
     2.5173   2.7522   2.9917   2.9928

          k = 0.2500 0.5052 0.0000 ( 42827 PWs)   bands (ev):

    -2.8534  -2.7665  -2.6297  -2.4334  -2.1869  -1.8872  -1.5395  -1.1380
    -0.6939  -0.2265   0.0401   0.1361   0.2486   0.3571   0.4395   0.6562
     0.8339   0.9033   1.1877   1.4495   1.5035   1.5463   1.6491   1.8039
     1.8939   2.0038   2.2350   2.4295

          k = 0.2500 0.5774 0.0000 ( 42738 PWs)   bands (ev):

    -1.4905  -1.4891  -1.4065  -1.4043  -1.2748  -1.2720  -1.0906  -1.0849
    -0.8916  -0.7837  -0.5552  -0.4924  -0.2236  -0.1735   0.1487   0.2013
     0.5426   0.5732   0.9105   1.2630   1.3557   1.4284   1.5698   1.7216
     1.7495   1.9576   2.0707   2.1812

          k = 0.3125 0.5413 0.0000 ( 42748 PWs)   bands (ev):

    -1.5789  -1.4937  -1.3598  -1.1680  -0.9287  -0.6415  -0.3233  -0.1537
    -0.1522  -0.0963  -0.0603   0.0270   0.0809   0.1805   0.2642   0.2783
     0.4528   0.5076   0.5911   0.7601   0.8211   0.9620   1.0538   1.1263
     1.2874   1.3330   1.5196   1.8209

     the Fermi energy is     2.7277 ev

!    total energy              =    -186.94154612 Ry
     Harris-Foulkes estimate   =    -186.94154828 Ry
     estimated scf accuracy    <       0.00000421 Ry

     The total energy is the sum of the following terms:

     one-electron contribution =   -3926.64190627 Ry
     hartree contribution      =    1977.01377599 Ry
     xc contribution           =    -150.37901714 Ry
     ewald contribution        =    1913.06409220 Ry
     smearing contrib. (-TS)   =       0.00150910 Ry

     convergence has been achieved in  26 iterations

     negative rho (up, down):  5.682E-06 0.000E+00

     Forces acting on atoms (cartesian axes, Ry/au):

     atom    1 type  1   force =     0.00000000    0.00000000    0.00191871
     atom    2 type  1   force =     0.00000000    0.00000000   -0.00297336
     atom    3 type  1   force =     0.00000000    0.00000000   -0.00142986
     atom    4 type  1   force =     0.00000000    0.00000000    0.00028714
     atom    5 type  1   force =     0.00000000    0.00000000    0.00104106
     atom    6 type  1   force =     0.00000000    0.00000000    0.00090557
     atom    7 type  1   force =     0.00000000    0.00000000   -0.00001392
     atom    8 type  1   force =     0.00000000    0.00000000   -0.00138468
     atom    9 type  1   force =     0.00000000    0.00000000    0.00137905
     atom   10 type  1   force =     0.00000000    0.00000000   -0.00027316
     atom   11 type  1   force =    -0.00000000   -0.00000000   -0.00087966
     atom   12 type  1   force =     0.00000000    0.00000000   -0.00106385
     atom   13 type  1   force =     0.00000000    0.00000000   -0.00190738
     atom   14 type  1   force =     0.00000000    0.00000000    0.00140852
     atom   15 type  1   force =     0.00000000    0.00000000    0.00298582

     Total force =     0.006074     Total SCF correction =     0.003395
     SCF correction compared to forces is large: reduce conv_thr to get better values


     Computing stress (Cartesian axis) and pressure


     negative rho (up, down):  5.682E-06 0.000E+00
          total   stress  (Ry/bohr**3)                   (kbar)     P=   -2.25
  -0.00003932   0.00000000   0.00000000         -5.78      0.00      0.00
  -0.00000000  -0.00003932   0.00000000         -0.00     -5.78      0.00
   0.00000000   0.00000000   0.00003281          0.00      0.00      4.83


     BFGS Geometry Optimization

     number of scf cycles    =   1
     number of bfgs steps    =   0

     energy   new            =    -186.9415461209 Ry

     new trust radius        =       0.0029858152 bohr
     new conv_thr            =       0.0000150000 Ry


ATOMIC_POSITIONS (crystal)
Al       0.666666600   0.333333300   0.037053223
Al       0.000000000   0.000000000  -0.000025088
Al       0.333333300   0.666666600   0.074062002
Al       0.666666600   0.333333300   0.148150567
Al       0.000000000   0.000000000   0.111119895
Al       0.333333300   0.666666600   0.185192819
Al       0.666666600   0.333333300   0.259259138
Al       0.000000000   0.000000000   0.222210539
Al       0.333333300   0.666666600   0.296307925
Al       0.666666600   0.333333300   0.370368062
Al      -0.000000000  -0.000000000   0.333325911
Al       0.333333300   0.666666600   0.407398424
Al       0.666666600   0.333333300   0.481465384
Al       0.000000000   0.000000000   0.444456329
Al       0.333333300   0.666666600   0.518543704



     Writing output data file Al_111_5_4.save/
     NEW-OLD atomic charge density approx. for the potential

     negative rho (up, down):  5.541E-06 0.000E+00

     total cpu time spent up to now is     6328.4 secs

     Self-consistent Calculation

     iteration #  1     ecut=    90.00 Ry     beta= 0.30
     Davidson diagonalization with overlap
     ethr =  1.00E-06,  avg # of iterations =  5.8

     negative rho (up, down):  3.732E-05 0.000E+00

     total cpu time spent up to now is     6682.2 secs

     total energy              =    -186.94168237 Ry
     Harris-Foulkes estimate   =    -186.94186088 Ry
     estimated scf accuracy    <       0.03803648 Ry

     iteration #  2     ecut=    90.00 Ry     beta= 0.30
     Davidson diagonalization with overlap
     ethr =  8.45E-05,  avg # of iterations =  1.0

     negative rho (up, down):  2.824E-04 0.000E+00

     total cpu time spent up to now is     6868.9 secs

     total energy              =    -186.94129244 Ry
     Harris-Foulkes estimate   =    -186.94170499 Ry
     estimated scf accuracy    <       0.02179739 Ry

     iteration #  3     ecut=    90.00 Ry     beta= 0.30
     Davidson diagonalization with overlap
     ethr =  4.84E-05,  avg # of iterations =  1.1

     negative rho (up, down):  3.143E-04 0.000E+00

     total cpu time spent up to now is     7057.1 secs

     total energy              =    -186.94152678 Ry
     Harris-Foulkes estimate   =    -186.94153179 Ry
     estimated scf accuracy    <       0.00015359 Ry

     iteration #  4     ecut=    90.00 Ry     beta= 0.30
     Davidson diagonalization with overlap
     ethr =  3.41E-07,  avg # of iterations =  5.2

     negative rho (up, down):  3.006E-04 0.000E+00

     total cpu time spent up to now is     7303.4 secs

     total energy              =    -186.94158780 Ry
     Harris-Foulkes estimate   =    -186.94159846 Ry
     estimated scf accuracy    <       0.00144183 Ry

     iteration #  5     ecut=    90.00 Ry     beta= 0.30
     Davidson diagonalization with overlap
     ethr =  3.41E-07,  avg # of iterations =  1.0

     negative rho (up, down):  3.654E-04 0.000E+00

     total cpu time spent up to now is     7492.7 secs

     total energy              =    -186.94154901 Ry
     Harris-Foulkes estimate   =    -186.94158961 Ry
     estimated scf accuracy    <       0.00064074 Ry

     iteration #  6     ecut=    90.00 Ry     beta= 0.30
     Davidson diagonalization with overlap
     ethr =  3.41E-07,  avg # of iterations =  3.4

     negative rho (up, down):  3.836E-04 0.000E+00

     total cpu time spent up to now is     7719.7 secs

     total energy              =    -186.94162537 Ry
     Harris-Foulkes estimate   =    -186.94163273 Ry
     estimated scf accuracy    <       0.00624324 Ry

     iteration #  7     ecut=    90.00 Ry     beta= 0.30
     Davidson diagonalization with overlap
     ethr =  3.41E-07,  avg # of iterations =  1.0

     negative rho (up, down):  4.142E-04 0.000E+00

     total cpu time spent up to now is     7910.8 secs

     total energy              =    -186.94158764 Ry
     Harris-Foulkes estimate   =    -186.94162577 Ry
     estimated scf accuracy    <       0.00558503 Ry

     iteration #  8     ecut=    90.00 Ry     beta= 0.30
     Davidson diagonalization with overlap
     ethr =  3.41E-07,  avg # of iterations =  2.2

     negative rho (up, down):  4.214E-04 0.000E+00

     total cpu time spent up to now is     8110.3 secs

     total energy              =    -186.94157423 Ry
     Harris-Foulkes estimate   =    -186.94159716 Ry
     estimated scf accuracy    <       0.00158442 Ry

     iteration #  9     ecut=    90.00 Ry     beta= 0.30
     Davidson diagonalization with overlap
     ethr =  3.41E-07,  avg # of iterations =  2.2

     negative rho (up, down):  5.680E-06 0.000E+00

     total cpu time spent up to now is     8310.1 secs

     End of self-consistent calculation

          k = 0.0000 0.0000 0.0000 ( 42639 PWs)   bands (ev):

    -8.5437  -8.4530  -8.3095  -8.1048  -7.8449  -7.5297  -7.1604  -6.7338
    -6.2559  -5.7244  -5.1354  -4.4990  -3.8091  -3.0683  -2.2421  -1.5766
    -0.6429   0.2691   1.2082   2.1745   3.1565   4.1371   5.0781   5.8925
     6.3888   6.5726   6.6378   7.1043

          k = 0.0000 0.0722 0.0000 ( 42542 PWs)   bands (ev):

    -8.4482  -8.3575  -8.2141  -8.0096  -7.7499  -7.4348  -7.0657  -6.6394
    -6.1618  -5.6306  -5.0420  -4.4060  -3.7165  -2.9761  -2.1496  -1.4873
    -0.5531   0.3582   1.2964   2.2616   3.2424   4.2217   5.1621   5.9782
     6.4817   6.6656   6.7318   7.1942

          k = 0.0000 0.1443 0.0000 ( 42560 PWs)   bands (ev):

    -8.1622  -8.0716  -7.9285  -7.7243  -7.4651  -7.1506  -6.7822  -6.3567
    -5.8799  -5.3497  -4.7622  -4.1274  -3.4392  -2.7002  -1.8732  -1.2195
    -0.2846   0.6242   1.5592   2.5205   3.4966   4.4705   5.4063   6.2256
     6.7548   6.9412   7.0110   7.4518

          k = 0.0000 0.2165 0.0000 ( 42572 PWs)   bands (ev):

    -7.6867  -7.5964  -7.4537  -7.2501  -6.9917  -6.6781  -6.3109  -5.8867
    -5.4114  -4.8830  -4.2973  -3.6648  -2.9789  -2.2424  -1.4155  -0.7743
     0.1597   1.0628   1.9899   2.9400   3.8992   4.8452   5.7301   6.4608
     6.9474   7.0791   7.1935   7.2489

          k = 0.0000 0.2887 0.0000 ( 42704 PWs)   bands (ev):

    -7.0235  -6.9336  -6.7915  -6.5888  -6.3315  -6.0193  -5.6538  -5.2315
    -4.7585  -4.2326  -3.6499  -3.0207  -2.3388  -1.6069  -0.7832  -0.1553
     0.7697   1.6562   2.5528   3.4319   4.1681   4.5915   4.9051   5.1206
     5.2012   5.3582   5.6510   5.7681

          k = 0.0000 0.3608 0.0000 ( 42842 PWs)   bands (ev):

    -6.1753  -6.0859  -5.9446  -5.7431  -5.4873  -5.1770  -4.8137  -4.3942
    -3.9243  -3.4022  -2.8241  -2.2004  -1.5257  -0.8037   0.0032   0.6212
     1.4802   2.1736   2.4590   2.6253   2.8611   3.1531   3.4393   3.6065
     3.7755   3.9859   4.3847   4.5090

          k = 0.0000 0.4330 0.0000 ( 42880 PWs)   bands (ev):

    -5.1455  -5.0567  -4.9166  -4.7166  -4.4628  -4.1551  -3.7950  -3.3794
    -2.9144  -2.3987  -1.8292  -1.2184  -0.5663   0.1040   0.6820   0.6882
     0.7685   0.8740   1.0946   1.3958   1.7274   1.9717   2.1866   2.5336
     2.7950   2.9661   3.4536   3.6183

          k = 0.0000 0.5052 0.0000 ( 42862 PWs)   bands (ev):

    -3.9386  -3.8508  -3.7121  -3.5144  -3.2636  -2.9600  -2.6054  -2.1978
    -1.7463  -1.2666  -1.0163  -0.9226  -0.8053  -0.6718  -0.6116  -0.3882
    -0.1690  -0.1329   0.1906   0.5852   0.9964   1.3881   1.6028   1.8245
     2.3285   2.3916   2.8586   2.9443

          k = 0.0000-0.5774 0.0000 ( 42798 PWs)   bands (ev):

    -2.5629  -2.5615  -2.4773  -2.4753  -2.3426  -2.3403  -2.1536  -2.1503
    -1.9470  -1.8516  -1.6132  -1.5580  -1.2712  -1.2266  -0.8879  -0.8418
    -0.4797  -0.4605  -0.0963   0.3050   0.7646   1.1024   1.4505   1.5476
     2.0951   2.1453   2.8040   2.8253

          k = 0.0625 0.1083 0.0000 ( 42534 PWs)   bands (ev):

    -8.2575  -8.1669  -8.0237  -7.8193  -7.5600  -7.2452  -6.8766  -6.4508
    -5.9738  -5.4433  -4.8554  -4.2202  -3.5316  -2.7920  -1.9652  -1.3087
    -0.3739   0.5358   1.4719   2.4347   3.4126   4.3888   5.3268   6.1457
     6.6653   6.8505   6.9186   7.3709

          k = 0.0625 0.1804 0.0000 ( 42544 PWs)   bands (ev):

    -7.8767  -7.7863  -7.6434  -7.4396  -7.1808  -6.8669  -6.4992  -6.0745
    -5.5986  -5.0695  -4.4830  -3.8496  -3.1628  -2.4252  -1.5981  -0.9521
    -0.0174   0.8884   1.8193   2.7753   3.7442   4.7084   5.6324   6.4456
     7.0056   7.2060   7.2796   7.6518

          k = 0.0625 0.2526 0.0000 ( 42670 PWs)   bands (ev):

    -7.3074  -7.2173  -7.0749  -6.8718  -6.6141  -6.3013  -5.9350  -5.5119
    -5.0379  -4.5109  -3.9269  -3.2962  -2.6124  -1.8783  -1.0526  -0.4196
     0.5111   1.4075   2.3242   3.2564   4.1789   5.0265   5.6408   6.0291
     6.1182   6.2602   6.4461   6.5478

          k = 0.0625 0.3248 0.0000 ( 42782 PWs)   bands (ev):

    -6.5517  -6.4620  -6.3204  -6.1183  -5.8619  -5.5507  -5.1864  -4.7656
    -4.2942  -3.7704  -3.1900  -2.5636  -1.8851  -1.1576  -0.3396   0.2819
     1.1900   2.0452   2.8496   3.3932   3.6576   3.9229   4.2164   4.3606
     4.5005   4.6872   5.0293   5.1608

          k = 0.0625 0.3969 0.0000 ( 42859 PWs)   bands (ev):

    -5.6126  -5.5236  -5.3829  -5.1822  -4.9275  -4.6185  -4.2568  -3.8393
    -3.3719  -2.8528  -2.2784  -1.6600  -0.9928  -0.2839   0.4872   1.0876
     1.5972   1.6411   1.7710   1.9899   2.2704   2.5811   2.8715   3.0652
     3.2999   3.5024   3.8890   4.1375

          k = 0.0625 0.4691 0.0000 ( 42871 PWs)   bands (ev):

    -4.4942  -4.4059  -4.2665  -4.0676  -3.8153  -3.5095  -3.1519  -2.7395
    -2.2790  -1.7700  -1.2120  -0.6274  -0.1086  -0.0933   0.0342   0.1134
     0.2516   0.3866   0.6234   0.9844   1.3832   1.7847   1.9666   2.2033
     2.3642   2.6745   3.2137   3.3112

          k = 0.0625 0.5413 0.0000 ( 42803 PWs)   bands (ev):

    -3.2019  -3.1147  -2.9774  -2.7816  -2.5338  -2.2352  -1.8935  -1.7515
    -1.6723  -1.5445  -1.4357  -1.3136  -1.0899  -1.0158  -0.7971  -0.5711
    -0.4567  -0.2240   0.0253   0.4469   0.8827   1.2409   1.5467   1.6903
     2.2056   2.2614   2.8877   3.0259

          k = 0.1250 0.2165 0.0000 ( 42642 PWs)   bands (ev):

    -7.4021  -7.3120  -7.1695  -6.9663  -6.7084  -6.3954  -6.0289  -5.6055
    -5.1312  -4.6038  -4.0194  -3.3882  -2.7039  -1.9691  -1.1428  -0.5080
     0.4242   1.3231   2.2443   3.1857   4.1316   5.0553   5.9032   6.5843
     7.0344   7.3054   7.3073   7.4205

          k = 0.1250 0.2887 0.0000 ( 42722 PWs)   bands (ev):

    -6.7402  -6.6505  -6.5087  -6.3063  -6.0495  -5.7380  -5.3731  -4.9517
    -4.4797  -3.9550  -3.3736  -2.7460  -2.0659  -1.3361  -0.5144   0.1091
     1.0295   1.9095   2.7968   3.6633   4.3942   4.8222   5.1240   5.3570
     5.4043   5.5955   5.8081   5.8895

          k = 0.1250 0.3608 0.0000 ( 42813 PWs)   bands (ev):

    -5.8937  -5.8044  -5.6635  -5.4623  -5.2071  -4.8974  -4.5349  -4.1163
    -3.6475  -3.1267  -2.5501  -1.9284  -1.2559  -0.5369   0.2659   0.8818
     1.7332   2.4251   2.7185   2.8827   3.1147   3.4013   3.6855   3.8479
     3.9955   4.2251   4.6083   4.6621

          k = 0.1250 0.4330 0.0000 ( 42833 PWs)   bands (ev):

    -4.8659  -4.7773  -4.6375  -4.4379  -4.1847  -3.8778  -3.5185  -3.1040
    -2.6404  -2.1262  -1.5587  -0.9504  -0.3014   0.3651   0.9431   0.9548
     1.0346   1.1378   1.3547   1.6523   1.9815   2.2350   2.4489   2.7929
     3.0113   3.2175   3.6954   3.7874

          k = 0.1250 0.5052 0.0000 ( 42832 PWs)   bands (ev):

    -3.6616  -3.5739  -3.4356  -3.2384  -2.9883  -2.6856  -2.3321  -1.9260
    -1.4764  -0.9995  -0.7461  -0.6512  -0.5353  -0.4046  -0.3422  -0.1201
     0.0937   0.1331   0.4537   0.8459   1.2552   1.6477   1.8585   2.0804
     2.5727   2.6216   3.1003   3.1772

          k = 0.1250 0.5774 0.0000 ( 42796 PWs)   bands (ev):

    -2.2890  -2.2876  -2.2037  -2.2017  -2.0697  -2.0672  -1.8820  -1.8782
    -1.6774  -1.5778  -1.3418  -1.2845  -1.0016  -0.9556  -0.6205  -0.5732
    -0.2149  -0.1953   0.1666   0.5673   1.0241   1.3643   1.7092   1.8012
     2.3429   2.3860   3.0348   3.0432

          k = 0.1875 0.3248 0.0000 ( 42828 PWs)   bands (ev):

    -5.9875  -5.8982  -5.7571  -5.5558  -5.3004  -4.9905  -4.6277  -4.2088
    -3.7396  -3.2183  -2.6410  -2.0183  -1.3444  -0.6229   0.1862   0.8029
     1.6881   2.5103   3.2550   3.7604   3.9910   4.1341   4.2722   4.4196
     4.5825   4.7179   4.7492   4.7799

          k = 0.1875 0.3969 0.0000 ( 42855 PWs)   bands (ev):

    -5.0522  -4.9635  -4.8234  -4.6235  -4.3699  -4.0624  -3.7024  -3.2869
    -2.8220  -2.3060  -1.7355  -1.1219  -0.4612   0.2386   0.9941   1.5907
     2.1120   2.1631   2.2835   2.4923   2.7607   3.0499   3.3046   3.3893
     3.5425   3.5715   3.7146   3.9205

          k = 0.1875 0.4691 0.0000 ( 42859 PWs)   bands (ev):

    -3.9383  -3.8504  -3.7117  -3.5138  -3.2628  -2.9586  -2.6030  -2.1932
    -1.7360  -1.2311  -0.6785  -0.1005   0.4214   0.4423   0.5646   0.6430
     0.7835   0.9113   1.1397   1.4921   1.8789   2.2695   2.4119   2.6705
     2.8135   3.0556   3.2315   3.2822

          k = 0.1875 0.5413 0.0000 ( 42829 PWs)   bands (ev):

    -2.6517  -2.5650  -2.4285  -2.2339  -1.9878  -1.6918  -1.3540  -1.2093
    -1.1316  -1.0046  -0.8918  -0.7702  -0.5512  -0.4791  -0.2606  -0.0418
     0.0753   0.3011   0.5470   0.9630   1.3894   1.7426   2.0272   2.1672
     2.6142   2.6746   3.0886   3.1074

          k = 0.2500 0.4330 0.0000 ( 42872 PWs)   bands (ev):

    -4.0307  -3.9427  -3.8039  -3.6058  -3.3544  -3.0499  -2.6937  -2.2830
    -1.8244  -1.3168  -0.7583  -0.1633   0.4643   1.0934   1.6347   1.7434
     1.7453   1.8087   1.8220   1.8738   1.8975   1.9914   2.1359   2.3218
     2.5369   2.7722   3.0107   3.0130

          k = 0.2500 0.5052 0.0000 ( 42827 PWs)   bands (ev):

    -2.8342  -2.7472  -2.6101  -2.4146  -2.1669  -1.8673  -1.5180  -1.1174
    -0.6754  -0.2077   0.0592   0.1554   0.2681   0.3752   0.4582   0.6760
     0.8535   0.9227   1.2082   1.4688   1.5226   1.5662   1.6687   1.8226
     1.9135   2.0236   2.2543   2.4485

          k = 0.2500 0.5774 0.0000 ( 42738 PWs)   bands (ev):

    -1.4713  -1.4699  -1.3872  -1.3849  -1.2552  -1.2522  -1.0719  -1.0661
    -0.8717  -0.7637  -0.5349  -0.4728  -0.2021  -0.1520   0.1690   0.2222
     0.5608   0.5921   0.9290   1.2816   1.3747   1.4477   1.5894   1.7395
     1.7682   1.9775   2.0881   2.2006

          k = 0.3125 0.5413 0.0000 ( 42748 PWs)   bands (ev):

    -1.5597  -1.4743  -1.3401  -1.1493  -0.9087  -0.6217  -0.3021  -0.1345
    -0.1329  -0.0768  -0.0408   0.0471   0.1006   0.2009   0.2828   0.2972
     0.4726   0.5272   0.6098   0.7807   0.8404   0.9805   1.0755   1.1472
     1.3061   1.3536   1.5396   1.8399

     the Fermi energy is     2.7464 ev

!    total energy              =    -186.94157937 Ry
     Harris-Foulkes estimate   =    -186.94158545 Ry
     estimated scf accuracy    <       0.00000435 Ry

     The total energy is the sum of the following terms:

     one-electron contribution =   -3926.24021564 Ry
     hartree contribution      =    1976.69952202 Ry
     xc contribution           =    -150.37818400 Ry
     ewald contribution        =    1912.97578868 Ry
     smearing contrib. (-TS)   =       0.00150958 Ry

     convergence has been achieved in   9 iterations

     negative rho (up, down):  5.680E-06 0.000E+00

     Forces acting on atoms (cartesian axes, Ry/au):

     atom    1 type  1   force =     0.00000000    0.00000000    0.00142034
     atom    2 type  1   force =     0.00000000    0.00000000   -0.00267363
     atom    3 type  1   force =     0.00000000   -0.00000000   -0.00112079
     atom    4 type  1   force =     0.00000000    0.00000000    0.00035119
     atom    5 type  1   force =     0.00000000    0.00000000    0.00087383
     atom    6 type  1   force =     0.00000000    0.00000000    0.00074343
     atom    7 type  1   force =     0.00000000    0.00000000   -0.00002397
     atom    8 type  1   force =     0.00000000    0.00000000   -0.00116819
     atom    9 type  1   force =     0.00000000    0.00000000    0.00117115
     atom   10 type  1   force =     0.00000000    0.00000000   -0.00033236
     atom   11 type  1   force =    -0.00000000   -0.00000000   -0.00072121
     atom   12 type  1   force =     0.00000000    0.00000000   -0.00089386
     atom   13 type  1   force =     0.00000000    0.00000000   -0.00140109
     atom   14 type  1   force =     0.00000000    0.00000000    0.00109412
     atom   15 type  1   force =     0.00000000    0.00000000    0.00268105

     Total force =     0.005136     Total SCF correction =     0.003710
     SCF correction compared to forces is large: reduce conv_thr to get better values


     Computing stress (Cartesian axis) and pressure


     negative rho (up, down):  5.680E-06 0.000E+00
          total   stress  (Ry/bohr**3)                   (kbar)     P=   -2.28
  -0.00003915   0.00000000   0.00000000         -5.76      0.00      0.00
   0.00000000  -0.00003915  -0.00000000          0.00     -5.76     -0.00
   0.00000000  -0.00000000   0.00003181          0.00     -0.00      4.68


     number of scf cycles    =   2
     number of bfgs steps    =   1

     energy   old            =    -186.9415461209 Ry
     energy   new            =    -186.9415793700 Ry

     CASE: energy  _new < energy  _old


     WARNING: bfgs curvature condition failed, Theta= 0.949
     new trust radius        =       0.0032843967 bohr
     new conv_thr            =       0.0000001500 Ry


ATOMIC_POSITIONS (crystal)
Al       0.666666600   0.333333300   0.037068150
Al       0.000000000   0.000000000  -0.000052721
Al       0.333333300   0.666666600   0.074050284
Al       0.666666600   0.333333300   0.148154121
Al       0.000000000   0.000000000   0.111128977
Al       0.333333300   0.666666600   0.185200560
Al       0.666666600   0.333333300   0.259258900
Al       0.000000000   0.000000000   0.222198403
Al       0.333333300   0.666666600   0.296320085
Al       0.666666600   0.333333300   0.370364697
Al      -0.000000000  -0.000000000   0.333318400
Al       0.333333300   0.666666600   0.407389134
Al       0.666666600   0.333333300   0.481450648
Al       0.000000000   0.000000000   0.444467777
Al       0.333333300   0.666666600   0.518571417



     Writing output data file Al_111_5_4.save/
     NEW-OLD atomic charge density approx. for the potential

     negative rho (up, down):  5.519E-06 0.000E+00

     total cpu time spent up to now is     8433.4 secs

     Self-consistent Calculation

     iteration #  1     ecut=    90.00 Ry     beta= 0.30
     Davidson diagonalization with overlap
     c_bands:  1 eigenvalues not converged
     ethr =  1.00E-06,  avg # of iterations =  5.5

     negative rho (up, down):  1.164E-07 0.000E+00

     total cpu time spent up to now is     8796.4 secs

     total energy              =    -186.94180680 Ry
     Harris-Foulkes estimate   =    -186.94213940 Ry
     estimated scf accuracy    <       0.08342316 Ry

     iteration #  2     ecut=    90.00 Ry     beta= 0.30
     Davidson diagonalization with overlap
     ethr =  1.85E-04,  avg # of iterations =  1.0

     total cpu time spent up to now is     8985.4 secs

     total energy              =    -186.94111048 Ry
     Harris-Foulkes estimate   =    -186.94184955 Ry
     estimated scf accuracy    <       0.04685732 Ry

     iteration #  3     ecut=    90.00 Ry     beta= 0.30
     Davidson diagonalization with overlap
     ethr =  1.04E-04,  avg # of iterations =  1.0

     total cpu time spent up to now is     9174.1 secs

     total energy              =    -186.94149425 Ry
     Harris-Foulkes estimate   =    -186.94149536 Ry
     estimated scf accuracy    <       0.00002515 Ry

     iteration #  4     ecut=    90.00 Ry     beta= 0.30
     Davidson diagonalization with overlap
     ethr =  5.59E-08,  avg # of iterations =  7.5

     total cpu time spent up to now is     9493.0 secs

     total energy              =    -186.94164176 Ry
     Harris-Foulkes estimate   =    -186.94166015 Ry
     estimated scf accuracy    <       0.00625150 Ry

     iteration #  5     ecut=    90.00 Ry     beta= 0.30
     Davidson diagonalization with overlap
     ethr =  5.59E-08,  avg # of iterations =  2.2

     total cpu time spent up to now is     9693.6 secs

     total energy              =    -186.94161232 Ry
     Harris-Foulkes estimate   =    -186.94164360 Ry
     estimated scf accuracy    <       0.00392267 Ry

     iteration #  6     ecut=    90.00 Ry     beta= 0.30
     Davidson diagonalization with overlap
     ethr =  5.59E-08,  avg # of iterations =  2.8

     total cpu time spent up to now is     9905.0 secs

     total energy              =    -186.94155528 Ry
     Harris-Foulkes estimate   =    -186.94162084 Ry
     estimated scf accuracy    <       0.00073253 Ry

     iteration #  7     ecut=    90.00 Ry     beta= 0.30
     Davidson diagonalization with overlap
     ethr =  5.59E-08,  avg # of iterations =  4.4

     total cpu time spent up to now is    10213.4 secs

     total energy              =    -186.94175153 Ry
     Harris-Foulkes estimate   =    -186.94175461 Ry
     estimated scf accuracy    <       0.02062959 Ry

     iteration #  8     ecut=    90.00 Ry     beta= 0.30
     Davidson diagonalization with overlap
     ethr =  5.59E-08,  avg # of iterations =  1.0

     total cpu time spent up to now is    10401.7 secs

     total energy              =    -186.94153924 Ry
     Harris-Foulkes estimate   =    -186.94175156 Ry
     estimated scf accuracy    <       0.02034503 Ry

     iteration #  9     ecut=    90.00 Ry     beta= 0.30
     Davidson diagonalization with overlap
     ethr =  5.59E-08,  avg # of iterations =  4.0

     total cpu time spent up to now is    10667.8 secs

     total energy              =    -186.94161734 Ry
     Harris-Foulkes estimate   =    -186.94162016 Ry
     estimated scf accuracy    <       0.00129356 Ry

     iteration # 10     ecut=    90.00 Ry     beta= 0.30
     Davidson diagonalization with overlap
     ethr =  5.59E-08,  avg # of iterations =  1.2

     total cpu time spent up to now is    10854.0 secs

     total energy              =    -186.94162817 Ry
     Harris-Foulkes estimate   =    -186.94161781 Ry
     estimated scf accuracy    <       0.00094357 Ry

     iteration # 11     ecut=    90.00 Ry     beta= 0.30
     Davidson diagonalization with overlap
     ethr =  5.59E-08,  avg # of iterations =  2.9

     total cpu time spent up to now is    11070.9 secs

     total energy              =    -186.94158055 Ry
     Harris-Foulkes estimate   =    -186.94163350 Ry
     estimated scf accuracy    <       0.00252228 Ry

     iteration # 12     ecut=    90.00 Ry     beta= 0.30
     Davidson diagonalization with overlap
     ethr =  5.59E-08,  avg # of iterations =  3.9

     total cpu time spent up to now is    11310.2 secs

     total energy              =    -186.94160830 Ry
     Harris-Foulkes estimate   =    -186.94161554 Ry
     estimated scf accuracy    <       0.00046337 Ry

     iteration # 13     ecut=    90.00 Ry     beta= 0.30
     Davidson diagonalization with overlap
     ethr =  5.59E-08,  avg # of iterations =  2.6

     negative rho (up, down):  2.520E-07 0.000E+00

     total cpu time spent up to now is    11521.3 secs

     total energy              =    -186.94161085 Ry
     Harris-Foulkes estimate   =    -186.94161448 Ry
     estimated scf accuracy    <       0.00010463 Ry

     iteration # 14     ecut=    90.00 Ry     beta= 0.30
     Davidson diagonalization with overlap
     ethr =  5.59E-08,  avg # of iterations =  2.1

     negative rho (up, down):  3.097E-06 0.000E+00

     total cpu time spent up to now is    11727.6 secs

     total energy              =    -186.94161282 Ry
     Harris-Foulkes estimate   =    -186.94161276 Ry
     estimated scf accuracy    <       0.00001356 Ry

     iteration # 15     ecut=    90.00 Ry     beta= 0.30
     Davidson diagonalization with overlap
     ethr =  3.01E-08,  avg # of iterations =  1.1

     negative rho (up, down):  7.409E-06 0.000E+00

     total cpu time spent up to now is    11921.0 secs

     total energy              =    -186.94161306 Ry
     Harris-Foulkes estimate   =    -186.94161313 Ry
     estimated scf accuracy    <       0.00002011 Ry

     iteration # 16     ecut=    90.00 Ry     beta= 0.30
     Davidson diagonalization with overlap
     ethr =  3.01E-08,  avg # of iterations =  1.0

     negative rho (up, down):  1.065E-05 0.000E+00

     total cpu time spent up to now is    12115.7 secs

     total energy              =    -186.94161326 Ry
     Harris-Foulkes estimate   =    -186.94161319 Ry
     estimated scf accuracy    <       0.00000401 Ry

     iteration # 17     ecut=    90.00 Ry     beta= 0.30
     Davidson diagonalization with overlap
     ethr =  8.90E-09,  avg # of iterations =  3.0

     negative rho (up, down):  1.593E-05 0.000E+00

     total cpu time spent up to now is    12327.4 secs

     total energy              =    -186.94161335 Ry
     Harris-Foulkes estimate   =    -186.94161352 Ry
     estimated scf accuracy    <       0.00001353 Ry

     iteration # 18     ecut=    90.00 Ry     beta= 0.30
     Davidson diagonalization with overlap
     ethr =  8.90E-09,  avg # of iterations =  1.4

     negative rho (up, down):  1.674E-05 0.000E+00

     total cpu time spent up to now is    12522.3 secs

     total energy              =    -186.94161342 Ry
     Harris-Foulkes estimate   =    -186.94161343 Ry
     estimated scf accuracy    <       0.00000029 Ry

     iteration # 19     ecut=    90.00 Ry     beta= 0.30
     Davidson diagonalization with overlap
     ethr =  6.54E-10,  avg # of iterations =  3.2

     negative rho (up, down):  5.686E-06 0.000E+00

     total cpu time spent up to now is    12731.1 secs

     End of self-consistent calculation

          k = 0.0000 0.0000 0.0000 ( 42639 PWs)   bands (ev):

    -8.5567  -8.4657  -8.3217  -8.1180  -7.8566  -7.5415  -7.1705  -6.7450
    -6.2694  -5.7378  -5.1496  -4.5122  -3.8228  -3.0819  -2.2556  -1.5901
    -0.6562   0.2557   1.1944   2.1611   3.1422   4.1228   5.0639   5.8834
     6.4318   6.6673   6.7307   7.1587

          k = 0.0000 0.0722 0.0000 ( 42542 PWs)   bands (ev):

    -8.4613  -8.3703  -8.2264  -8.0228  -7.7616  -7.4466  -7.0759  -6.6506
    -6.1753  -5.6440  -5.0562  -4.4192  -3.7302  -2.9897  -2.1632  -1.5008
    -0.5664   0.3448   1.2825   2.2482   3.2281   4.2075   5.1478   5.9689
     6.5224   6.7620   6.8237   7.2490

          k = 0.0000 0.1443 0.0000 ( 42560 PWs)   bands (ev):

    -8.1752  -8.0844  -7.9408  -7.7375  -7.4768  -7.1624  -6.7923  -6.3679
    -5.8934  -5.3631  -4.7764  -4.1407  -3.4529  -2.7138  -1.8867  -1.2330
    -0.2979   0.6109   1.5454   2.5071   3.4823   4.4562   5.3921   6.2157
     6.7867   7.0442   7.0984   7.5098

          k = 0.0000 0.2165 0.0000 ( 42572 PWs)   bands (ev):

    -7.6997  -7.6091  -7.4660  -7.2633  -7.0034  -6.6899  -6.3210  -5.8979
    -5.4250  -4.8963  -4.3116  -3.6780  -2.9926  -2.2561  -1.4291  -0.7878
     0.1464   1.0494   1.9761   2.9267   3.8851   4.8310   5.7160   6.4486
     6.9387   7.0662   7.1867   7.2516

          k = 0.0000 0.2887 0.0000 ( 42704 PWs)   bands (ev):

    -7.0366  -6.9463  -6.8038  -6.6020  -6.3432  -6.0312  -5.6639  -5.2427
    -4.7720  -4.2460  -3.6641  -3.0339  -2.3525  -1.6205  -0.7968  -0.1688
     0.7564   1.6428   2.5390   3.4185   4.1546   4.5784   4.8928   5.1072
     5.1881   5.3463   5.6390   5.7543

          k = 0.0000 0.3608 0.0000 ( 42842 PWs)   bands (ev):

    -6.1883  -6.0986  -5.9569  -5.7563  -5.4990  -5.1888  -4.8238  -4.4053
    -3.9378  -3.4156  -2.8383  -2.2136  -1.5393  -0.8173  -0.0104   0.6077
     1.4670   2.1605   2.4461   2.6124   2.8484   3.1402   3.4277   3.5939
     3.7626   3.9758   4.3731   4.4956

          k = 0.0000 0.4330 0.0000 ( 42880 PWs)   bands (ev):

    -5.1585  -5.0694  -4.9288  -4.7298  -4.4745  -4.1669  -3.8051  -3.3905
    -2.9279  -2.4120  -1.8434  -1.2316  -0.5799   0.0905   0.6689   0.6753
     0.7554   0.8616   1.0819   1.3836   1.7151   1.9588   2.1760   2.5224
     2.7817   2.9526   3.4402   3.6051

          k = 0.0000 0.5052 0.0000 ( 42862 PWs)   bands (ev):

    -3.9517  -3.8635  -3.7244  -3.5276  -3.2753  -2.9718  -2.6155  -2.2090
    -1.7598  -1.2799  -1.0293  -0.9354  -0.8177  -0.6857  -0.6248  -0.4002
    -0.1813  -0.1453   0.1795   0.5734   0.9841   1.3745   1.5895   1.8111
     2.3146   2.3777   2.8451   2.9310

          k = 0.0000-0.5774 0.0000 ( 42798 PWs)   bands (ev):

    -2.5760  -2.5746  -2.4901  -2.4879  -2.3550  -2.3524  -2.1670  -2.1634
    -1.9589  -1.8632  -1.6244  -1.5702  -1.2813  -1.2367  -0.8994  -0.8528
    -0.4933  -0.4738  -0.1097   0.2913   0.7505   1.0881   1.4376   1.5344
     2.0815   2.1317   2.7907   2.8115

          k = 0.0625 0.1083 0.0000 ( 42534 PWs)   bands (ev):

    -8.2705  -8.1796  -8.0359  -7.8326  -7.5717  -7.2571  -6.8868  -6.4621
    -5.9873  -5.4567  -4.8696  -4.2334  -3.5452  -2.8057  -1.9788  -1.3222
    -0.3872   0.5224   1.4581   2.4213   3.3983   4.3745   5.3126   6.1361
     6.7007   6.9509   7.0080   7.4270

          k = 0.0625 0.1804 0.0000 ( 42544 PWs)   bands (ev):

    -7.8897  -7.7990  -7.6557  -7.4528  -7.1926  -6.8787  -6.5093  -6.0857
    -5.6122  -5.0828  -4.4973  -3.8628  -3.1764  -2.4388  -1.6116  -0.9656
    -0.0307   0.8750   1.8055   2.7619   3.7300   4.6942   5.6182   6.4348
     7.0232   7.3163   7.3576   7.7131

          k = 0.0625 0.2526 0.0000 ( 42670 PWs)   bands (ev):

    -7.3204  -7.2300  -7.0872  -6.8851  -6.6258  -6.3131  -5.9451  -5.5231
    -5.0514  -4.5242  -3.9411  -3.3094  -2.6261  -1.8920  -1.0662  -0.4331
     0.4979   1.3941   2.3104   3.2431   4.1649   5.0127   5.6276   6.0164
     6.1052   6.2470   6.4337   6.5345

          k = 0.0625 0.3248 0.0000 ( 42782 PWs)   bands (ev):

    -6.5647  -6.4748  -6.3327  -6.1316  -5.8736  -5.5625  -5.1965  -4.7768
    -4.3078  -3.7837  -3.2042  -2.5768  -1.8988  -1.1712  -0.3531   0.2685
     1.1767   2.0319   2.8361   3.3800   3.6447   3.9101   4.2036   4.3485
     4.4878   4.6755   5.0191   5.1464

          k = 0.0625 0.3969 0.0000 ( 42859 PWs)   bands (ev):

    -5.6257  -5.5363  -5.3952  -5.1954  -4.9392  -4.6303  -4.2670  -3.8505
    -3.3854  -2.8661  -2.2926  -1.6731  -1.0064  -0.2974   0.4738   1.0743
     1.5842   1.6282   1.7585   1.9769   2.2578   2.5690   2.8598   3.0538
     3.2882   3.4905   3.8755   4.1237

          k = 0.0625 0.4691 0.0000 ( 42871 PWs)   bands (ev):

    -4.5072  -4.4186  -4.2787  -4.0808  -3.8270  -3.5213  -3.1620  -2.7506
    -2.2925  -1.7833  -1.2261  -0.6405  -0.1217  -0.1064   0.0217   0.1004
     0.2384   0.3743   0.6112   0.9727   1.3720   1.7731   1.9532   2.1899
     2.3508   2.6612   3.1995   3.2979

          k = 0.0625 0.5413 0.0000 ( 42803 PWs)   bands (ev):

    -3.2150  -3.1275  -2.9896  -2.7948  -2.5455  -2.2471  -1.9038  -1.7645
    -1.6850  -1.5564  -1.4469  -1.3269  -1.1015  -1.0294  -0.8089  -0.5839
    -0.4676  -0.2365   0.0124   0.4336   0.8692   1.2275   1.5330   1.6763
     2.1922   2.2482   2.8741   3.0123

          k = 0.1250 0.2165 0.0000 ( 42642 PWs)   bands (ev):

    -7.4151  -7.3247  -7.1818  -6.9796  -6.7201  -6.4072  -6.0390  -5.6167
    -5.1447  -4.6171  -4.0336  -3.4014  -2.7175  -1.9827  -1.1564  -0.5215
     0.4109   1.3097   2.2305   3.1724   4.1175   5.0412   5.8893   6.5717
     7.0227   7.2942   7.2944   7.2998

          k = 0.1250 0.2887 0.0000 ( 42722 PWs)   bands (ev):

    -6.7533  -6.6632  -6.5209  -6.3196  -6.0612  -5.7498  -5.3832  -4.9629
    -4.4932  -3.9683  -3.3878  -2.7592  -2.0795  -1.3498  -0.5280   0.0956
     1.0162   1.8962   2.7831   3.6499   4.3807   4.8091   5.1116   5.3438
     5.3914   5.5836   5.7948   5.8771

          k = 0.1250 0.3608 0.0000 ( 42813 PWs)   bands (ev):

    -5.9067  -5.8171  -5.6757  -5.4756  -5.2188  -4.9092  -4.5450  -4.1274
    -3.6610  -3.1401  -2.5643  -1.9416  -1.2696  -0.5505   0.2524   0.8684
     1.7200   2.4120   2.7055   2.8698   3.1019   3.3884   3.6739   3.8351
     3.9829   4.2148   4.5969   4.6488

          k = 0.1250 0.4330 0.0000 ( 42833 PWs)   bands (ev):

    -4.8789  -4.7900  -4.6497  -4.4512  -4.1965  -3.8896  -3.5286  -3.1151
    -2.6538  -2.1395  -1.5728  -0.9636  -0.3150   0.3516   0.9301   0.9418
     1.0215   1.1254   1.3420   1.6400   1.9692   2.2221   2.4383   2.7817
     2.9981   3.2040   3.6820   3.7741

          k = 0.1250 0.5052 0.0000 ( 42832 PWs)   bands (ev):

    -3.6746  -3.5866  -3.4479  -3.2516  -3.0000  -2.6974  -2.3422  -1.9371
    -1.4898  -1.0127  -0.7590  -0.6640  -0.5477  -0.4186  -0.3555  -0.1321
     0.0814   0.1207   0.4426   0.8341   1.2428   1.6341   1.8452   2.0670
     2.5590   2.6077   3.0868   3.1640

          k = 0.1250 0.5774 0.0000 ( 42796 PWs)   bands (ev):

    -2.3021  -2.3007  -2.2165  -2.2143  -2.0821  -2.0793  -1.8953  -1.8913
    -1.6893  -1.5894  -1.3531  -1.2967  -1.0117  -0.9657  -0.6319  -0.5842
    -0.2285  -0.2085   0.1532   0.5536   1.0099   1.3500   1.6963   1.7880
     2.3293   2.3724   3.0214   3.0295

          k = 0.1875 0.3248 0.0000 ( 42828 PWs)   bands (ev):

    -6.0005  -5.9109  -5.7694  -5.5691  -5.3121  -5.0023  -4.6378  -4.2199
    -3.7531  -3.2316  -2.6552  -2.0315  -1.3580  -0.6365   0.1727   0.7894
     1.6749   2.4970   3.2415   3.7472   3.9779   4.1210   4.2595   4.4074
     4.5702   4.7043   4.7361   4.7680

          k = 0.1875 0.3969 0.0000 ( 42855 PWs)   bands (ev):

    -5.0652  -4.9762  -4.8356  -4.6368  -4.3816  -4.0742  -3.7125  -3.2981
    -2.8355  -2.3194  -1.7497  -1.1351  -0.4749   0.2251   0.9806   1.5774
     2.0990   2.1501   2.2710   2.4794   2.7480   3.0376   3.2926   3.3763
     3.5298   3.5610   3.7016   3.9087

          k = 0.1875 0.4691 0.0000 ( 42859 PWs)   bands (ev):

    -3.9514  -3.8631  -3.7239  -3.5270  -3.2745  -2.9704  -2.6131  -2.2044
    -1.7495  -1.2444  -0.6926  -0.1136   0.4082   0.4293   0.5521   0.6301
     0.7703   0.8990   1.1275   1.4804   1.8677   2.2578   2.3988   2.6573
     2.8002   3.0425   3.2184   3.2693

          k = 0.1875 0.5413 0.0000 ( 42829 PWs)   bands (ev):

    -2.6647  -2.5777  -2.4407  -2.2471  -1.9996  -1.7036  -1.3643  -1.2223
    -1.1441  -1.0164  -0.9030  -0.7836  -0.5628  -0.4926  -0.2724  -0.0546
     0.0644   0.2886   0.5341   0.9498   1.3759   1.7292   2.0136   2.1534
     2.6008   2.6615   3.0759   3.0938

          k = 0.2500 0.4330 0.0000 ( 42872 PWs)   bands (ev):

    -4.0438  -3.9554  -3.8161  -3.6190  -3.3662  -3.0617  -2.7038  -2.2942
    -1.8379  -1.3301  -0.7724  -0.1764   0.4507   1.0800   1.6217   1.7302
     1.7323   1.7960   1.8091   1.8611   1.8852   1.9788   2.1233   2.3096
     2.5250   2.7610   2.9977   3.0019

          k = 0.2500 0.5052 0.0000 ( 42827 PWs)   bands (ev):

    -2.8472  -2.7599  -2.6224  -2.4278  -2.1786  -1.8791  -1.5281  -1.1285
    -0.6888  -0.2209   0.0463   0.1426   0.2556   0.3614   0.4450   0.6640
     0.8412   0.9101   1.1971   1.4558   1.5098   1.5544   1.6565   1.8093
     1.9012   2.0117   2.2420   2.4360

          k = 0.2500 0.5774 0.0000 ( 42738 PWs)   bands (ev):

    -1.4844  -1.4829  -1.4000  -1.3975  -1.2677  -1.2643  -1.0853  -1.0791
    -0.8836  -0.7753  -0.5461  -0.4851  -0.2121  -0.1621   0.1575   0.2112
     0.5472   0.5789   0.9158   1.2683   1.3615   1.4351   1.5771   1.7256
     1.7549   1.9656   2.0736   2.1882

          k = 0.3125 0.5413 0.0000 ( 42748 PWs)   bands (ev):

    -1.5728  -1.4871  -1.3524  -1.1625  -0.9204  -0.6335  -0.3126  -0.1476
    -0.1460  -0.0895  -0.0532   0.0354   0.0886   0.1896   0.2692   0.2842
     0.4607   0.5152   0.5968   0.7698   0.8280   0.9671   1.0657   1.1364
     1.2925   1.3424   1.5278   1.8269

     the Fermi energy is     2.7334 ev

!    total energy              =    -186.94161346 Ry
     Harris-Foulkes estimate   =    -186.94161344 Ry
     estimated scf accuracy    <       0.00000002 Ry

     The total energy is the sum of the following terms:

     one-electron contribution =   -3926.14445240 Ry
     hartree contribution      =    1976.70979191 Ry
     xc contribution           =    -150.37752030 Ry
     ewald contribution        =    1912.86906054 Ry
     smearing contrib. (-TS)   =       0.00150679 Ry

     convergence has been achieved in  19 iterations

     negative rho (up, down):  5.686E-06 0.000E+00

     Forces acting on atoms (cartesian axes, Ry/au):

     atom    1 type  1   force =     0.00000000    0.00000000    0.00102565
     atom    2 type  1   force =    -0.00000000   -0.00000000   -0.00239895
     atom    3 type  1   force =     0.00000000    0.00000000   -0.00085282
     atom    4 type  1   force =     0.00000000    0.00000000    0.00040432
     atom    5 type  1   force =     0.00000000    0.00000000    0.00074693
     atom    6 type  1   force =     0.00000000   -0.00000000    0.00059171
     atom    7 type  1   force =     0.00000000    0.00000000   -0.00001148
     atom    8 type  1   force =     0.00000000    0.00000000   -0.00097369
     atom    9 type  1   force =     0.00000000    0.00000000    0.00096411
     atom   10 type  1   force =     0.00000000    0.00000000   -0.00039815
     atom   11 type  1   force =     0.00000000    0.00000000   -0.00056561
     atom   12 type  1   force =     0.00000000    0.00000000   -0.00076779
     atom   13 type  1   force =     0.00000000    0.00000000   -0.00101507
     atom   14 type  1   force =    -0.00000000   -0.00000000    0.00083750
     atom   15 type  1   force =     0.00000000   -0.00000000    0.00241334

     Total force =     0.004371     Total SCF correction =     0.000217


     Computing stress (Cartesian axis) and pressure


     negative rho (up, down):  5.686E-06 0.000E+00
          total   stress  (Ry/bohr**3)                   (kbar)     P=   -2.32
  -0.00003931  -0.00000000   0.00000000         -5.78     -0.00      0.00
   0.00000000  -0.00003931  -0.00000000          0.00     -5.78     -0.00
   0.00000000   0.00000000   0.00003138          0.00      0.00      4.62


     number of scf cycles    =   3
     number of bfgs steps    =   2

     energy   old            =    -186.9415793700 Ry
     energy   new            =    -186.9416134611 Ry

     CASE: energy  _new < energy  _old

     new trust radius        =       0.0049265950 bohr
     new conv_thr            =       0.0000001500 Ry


ATOMIC_POSITIONS (crystal)
Al       0.666666600   0.333333300   0.037087145
Al       0.000000000   0.000000000  -0.000094063
Al       0.333333300   0.666666600   0.074034811
Al       0.666666600   0.333333300   0.148160641
Al       0.000000000   0.000000000   0.111142072
Al       0.333333300   0.666666600   0.185211124
Al       0.666666600   0.333333300   0.259258685
Al       0.000000000   0.000000000   0.222181250
Al       0.333333300   0.666666600   0.296337103
Al       0.666666600   0.333333300   0.370358311
Al      -0.000000000  -0.000000000   0.333308267
Al       0.333333300   0.666666600   0.407375690
Al       0.666666600   0.333333300   0.481431846
Al      -0.000000000  -0.000000000   0.444482968
Al       0.333333300   0.666666600   0.518612986



     Writing output data file Al_111_5_4.save/
     NEW-OLD atomic charge density approx. for the potential

     negative rho (up, down):  5.458E-06 0.000E+00

     total cpu time spent up to now is    12853.2 secs

     Self-consistent Calculation

     iteration #  1     ecut=    90.00 Ry     beta= 0.30
     Davidson diagonalization with overlap
     ethr =  1.00E-06,  avg # of iterations =  2.4

     negative rho (up, down):  4.839E-06 0.000E+00

     total cpu time spent up to now is    13101.2 secs

     total energy              =    -186.94164831 Ry
     Harris-Foulkes estimate   =    -186.94165088 Ry
     estimated scf accuracy    <       0.00106703 Ry

     iteration #  2     ecut=    90.00 Ry     beta= 0.30
     Davidson diagonalization with overlap
     ethr =  2.37E-06,  avg # of iterations =  1.0

     negative rho (up, down):  3.841E-06 0.000E+00

     total cpu time spent up to now is    13297.0 secs

     total energy              =    -186.94164391 Ry
     Harris-Foulkes estimate   =    -186.94165053 Ry
     estimated scf accuracy    <       0.00061813 Ry

     iteration #  3     ecut=    90.00 Ry     beta= 0.30
     Davidson diagonalization with overlap
     ethr =  1.37E-06,  avg # of iterations =  1.0

     negative rho (up, down):  3.906E-06 0.000E+00

     total cpu time spent up to now is    13499.0 secs

     total energy              =    -186.94164732 Ry
     Harris-Foulkes estimate   =    -186.94164736 Ry
     estimated scf accuracy    <       0.00000107 Ry

     iteration #  4     ecut=    90.00 Ry     beta= 0.30
     Davidson diagonalization with overlap
     ethr =  2.37E-09,  avg # of iterations =  4.8

     negative rho (up, down):  3.905E-06 0.000E+00

     total cpu time spent up to now is    13779.7 secs

     total energy              =    -186.94164815 Ry
     Harris-Foulkes estimate   =    -186.94164815 Ry
     estimated scf accuracy    <       0.00002033 Ry

     iteration #  5     ecut=    90.00 Ry     beta= 0.30
     Davidson diagonalization with overlap
     ethr =  2.37E-09,  avg # of iterations =  1.0

     negative rho (up, down):  3.925E-06 0.000E+00

     total cpu time spent up to now is    13971.5 secs

     total energy              =    -186.94164815 Ry
     Harris-Foulkes estimate   =    -186.94164816 Ry
     estimated scf accuracy    <       0.00002038 Ry

     iteration #  6     ecut=    90.00 Ry     beta= 0.30
     Davidson diagonalization with overlap
     ethr =  2.37E-09,  avg # of iterations =  1.0

     negative rho (up, down):  4.924E-06 0.000E+00

     total cpu time spent up to now is    14171.0 secs

     total energy              =    -186.94164819 Ry
     Harris-Foulkes estimate   =    -186.94164815 Ry
     estimated scf accuracy    <       0.00001951 Ry

     iteration #  7     ecut=    90.00 Ry     beta= 0.30
     Davidson diagonalization with overlap
     ethr =  2.37E-09,  avg # of iterations =  3.0

     negative rho (up, down):  4.910E-06 0.000E+00

     total cpu time spent up to now is    14461.9 secs

     total energy              =    -186.94164865 Ry
     Harris-Foulkes estimate   =    -186.94164877 Ry
     estimated scf accuracy    <       0.00002196 Ry

     iteration #  8     ecut=    90.00 Ry     beta= 0.30
     Davidson diagonalization with overlap
     ethr =  2.37E-09,  avg # of iterations =  1.0

     negative rho (up, down):  4.747E-06 0.000E+00

     total cpu time spent up to now is    14661.0 secs

     total energy              =    -186.94164856 Ry
     Harris-Foulkes estimate   =    -186.94164865 Ry
     estimated scf accuracy    <       0.00002218 Ry

     iteration #  9     ecut=    90.00 Ry     beta= 0.30
     Davidson diagonalization with overlap
     ethr =  2.37E-09,  avg # of iterations =  1.0

     negative rho (up, down):  5.916E-06 0.000E+00

     total cpu time spent up to now is    14860.0 secs

     total energy              =    -186.94164919 Ry
     Harris-Foulkes estimate   =    -186.94164857 Ry
     estimated scf accuracy    <       0.00002255 Ry

     iteration # 10     ecut=    90.00 Ry     beta= 0.30
     Davidson diagonalization with overlap
     ethr =  2.37E-09,  avg # of iterations =  1.7

     negative rho (up, down):  6.210E-06 0.000E+00

     total cpu time spent up to now is    15086.5 secs

     total energy              =    -186.94164955 Ry
     Harris-Foulkes estimate   =    -186.94164931 Ry
     estimated scf accuracy    <       0.00001948 Ry

     iteration # 11     ecut=    90.00 Ry     beta= 0.30
     Davidson diagonalization with overlap
     ethr =  2.37E-09,  avg # of iterations =  1.0

     negative rho (up, down):  6.496E-06 0.000E+00

     total cpu time spent up to now is    15284.3 secs

     total energy              =    -186.94164969 Ry
     Harris-Foulkes estimate   =    -186.94164956 Ry
     estimated scf accuracy    <       0.00001875 Ry

     iteration # 12     ecut=    90.00 Ry     beta= 0.30
     Davidson diagonalization with overlap
     ethr =  2.37E-09,  avg # of iterations =  1.0

     negative rho (up, down):  9.371E-06 0.000E+00

     total cpu time spent up to now is    15489.3 secs

     total energy              =    -186.94165063 Ry
     Harris-Foulkes estimate   =    -186.94164970 Ry
     estimated scf accuracy    <       0.00001729 Ry

     iteration # 13     ecut=    90.00 Ry     beta= 0.30
     Davidson diagonalization with overlap
     ethr =  2.37E-09,  avg # of iterations =  3.0

     negative rho (up, down):  6.290E-06 0.000E+00

     total cpu time spent up to now is    15740.9 secs

     total energy              =    -186.94164707 Ry
     Harris-Foulkes estimate   =    -186.94165082 Ry
     estimated scf accuracy    <       0.00001546 Ry

     iteration # 14     ecut=    90.00 Ry     beta= 0.30
     Davidson diagonalization with overlap
     ethr =  2.37E-09,  avg # of iterations =  3.6

     negative rho (up, down):  6.304E-06 0.000E+00

     total cpu time spent up to now is    16067.4 secs

     total energy              =    -186.94164803 Ry
     Harris-Foulkes estimate   =    -186.94164825 Ry
     estimated scf accuracy    <       0.00000407 Ry

     iteration # 15     ecut=    90.00 Ry     beta= 0.30
     Davidson diagonalization with overlap
     ethr =  2.37E-09,  avg # of iterations =  2.0

     negative rho (up, down):  5.069E-06 0.000E+00

     total cpu time spent up to now is    16281.7 secs

     total energy              =    -186.94164810 Ry
     Harris-Foulkes estimate   =    -186.94164812 Ry
     estimated scf accuracy    <       0.00000158 Ry

     iteration # 16     ecut=    90.00 Ry     beta= 0.30
     Davidson diagonalization with overlap
     ethr =  2.37E-09,  avg # of iterations =  1.0

     negative rho (up, down):  3.475E-06 0.000E+00

     total cpu time spent up to now is    16481.4 secs

     total energy              =    -186.94164802 Ry
     Harris-Foulkes estimate   =    -186.94164810 Ry
     estimated scf accuracy    <       0.00000087 Ry

     iteration # 17     ecut=    90.00 Ry     beta= 0.30
     Davidson diagonalization with overlap
     ethr =  1.94E-09,  avg # of iterations =  1.2

     negative rho (up, down):  4.395E-06 0.000E+00

     total cpu time spent up to now is    16681.1 secs

     total energy              =    -186.94164803 Ry
     Harris-Foulkes estimate   =    -186.94164805 Ry
     estimated scf accuracy    <       0.00000047 Ry

     iteration # 18     ecut=    90.00 Ry     beta= 0.30
     Davidson diagonalization with overlap
     ethr =  1.05E-09,  avg # of iterations =  1.4

     negative rho (up, down):  4.729E-06 0.000E+00

     total cpu time spent up to now is    16883.4 secs

     total energy              =    -186.94164803 Ry
     Harris-Foulkes estimate   =    -186.94164805 Ry
     estimated scf accuracy    <       0.00000064 Ry

     iteration # 19     ecut=    90.00 Ry     beta= 0.30
     Davidson diagonalization with overlap
     ethr =  1.05E-09,  avg # of iterations =  1.4

     negative rho (up, down):  3.883E-06 0.000E+00

     total cpu time spent up to now is    17084.2 secs

     total energy              =    -186.94164802 Ry
     Harris-Foulkes estimate   =    -186.94164805 Ry
     estimated scf accuracy    <       0.00000063 Ry

     iteration # 20     ecut=    90.00 Ry     beta= 0.30
     Davidson diagonalization with overlap
     ethr =  1.05E-09,  avg # of iterations =  1.0

     negative rho (up, down):  3.662E-06 0.000E+00

     total cpu time spent up to now is    17285.6 secs

     total energy              =    -186.94164802 Ry
     Harris-Foulkes estimate   =    -186.94164803 Ry
     estimated scf accuracy    <       0.00000023 Ry

     iteration # 21     ecut=    90.00 Ry     beta= 0.30
     Davidson diagonalization with overlap
     ethr =  5.22E-10,  avg # of iterations =  1.8

     negative rho (up, down):  5.656E-06 0.000E+00

     total cpu time spent up to now is    17477.4 secs

     End of self-consistent calculation

          k = 0.0000 0.0000 0.0000 ( 42639 PWs)   bands (ev):

    -8.5561  -8.4646  -8.3200  -8.1176  -7.8541  -7.5392  -7.1661  -6.7420
    -6.2694  -5.7376  -5.1507  -4.5119  -3.8232  -3.0822  -2.2559  -1.5903
    -0.6561   0.2557   1.1935   2.1609   3.1405   4.1207   5.0608   5.8811
     6.4288   6.6722   6.7293   7.1570

          k = 0.0000 0.0722 0.0000 ( 42542 PWs)   bands (ev):

    -8.4606  -8.3692  -8.2246  -8.0224  -7.7591  -7.4443  -7.0715  -6.6476
    -6.1753  -5.6439  -5.0573  -4.4189  -3.7306  -2.9900  -2.1634  -1.5009
    -0.5663   0.3447   1.2817   2.2479   3.2263   4.2053   5.1448   5.9666
     6.5193   6.7669   6.8222   7.2474

          k = 0.0000 0.1443 0.0000 ( 42560 PWs)   bands (ev):

    -8.1745  -8.0833  -7.9390  -7.7371  -7.4743  -7.1601  -6.7879  -6.3648
    -5.8934  -5.3630  -4.7775  -4.1403  -3.4533  -2.7141  -1.8870  -1.2331
    -0.2977   0.6108   1.5445   2.5069   3.4806   4.4542   5.3892   6.2136
     6.7835   7.0493   7.0966   7.5088

          k = 0.0000 0.2165 0.0000 ( 42572 PWs)   bands (ev):

    -7.6990  -7.6081  -7.4642  -7.2629  -7.0009  -6.6876  -6.3166  -5.8948
    -5.4249  -4.8962  -4.3126  -3.6776  -2.9930  -2.2564  -1.4294  -0.7880
     0.1465   1.0493   1.9753   2.9264   3.8835   4.8292   5.7138   6.4473
     6.9372   7.0670   7.1872   7.2506

          k = 0.0000 0.2887 0.0000 ( 42704 PWs)   bands (ev):

    -7.0359  -6.9453  -6.8020  -6.6016  -6.3407  -6.0289  -5.6595  -5.2396
    -4.7720  -4.2458  -3.6652  -3.0336  -2.3529  -1.6208  -0.7970  -0.1690
     0.7566   1.6428   2.5384   3.4184   4.1543   4.5788   4.8942   5.1074
     5.1886   5.3486   5.6411   5.7531

          k = 0.0000 0.3608 0.0000 ( 42842 PWs)   bands (ev):

    -6.1877  -6.0976  -5.9551  -5.7559  -5.4965  -5.1866  -4.8194  -4.4022
    -3.9378  -3.4154  -2.8393  -2.2133  -1.5397  -0.8176  -0.0105   0.6076
[...]
     Harris-Foulkes estimate   =    -186.94177732 Ry
     estimated scf accuracy    <       0.00000409 Ry

     iteration #  5     ecut=    90.00 Ry     beta= 0.30
     Davidson diagonalization with overlap
     ethr =  9.08E-09,  avg # of iterations =  3.2

     negative rho (up, down):  2.893E-05 0.000E+00

     total cpu time spent up to now is    38972.5 secs

     total energy              =    -186.94177749 Ry
     Harris-Foulkes estimate   =    -186.94177749 Ry
     estimated scf accuracy    <       0.00000233 Ry

     iteration #  6     ecut=    90.00 Ry     beta= 0.30
     Davidson diagonalization with overlap
     ethr =  5.18E-09,  avg # of iterations =  1.0

     negative rho (up, down):  3.469E-05 0.000E+00

     total cpu time spent up to now is    39167.2 secs

     total energy              =    -186.94177732 Ry
     Harris-Foulkes estimate   =    -186.94177750 Ry
     estimated scf accuracy    <       0.00000269 Ry

     iteration #  7     ecut=    90.00 Ry     beta= 0.30
     Davidson diagonalization with overlap
     ethr =  5.18E-09,  avg # of iterations =  2.7

     negative rho (up, down):  3.607E-05 0.000E+00

     total cpu time spent up to now is    39384.1 secs

     total energy              =    -186.94177746 Ry
     Harris-Foulkes estimate   =    -186.94177777 Ry
     estimated scf accuracy    <       0.00003557 Ry

     iteration #  8     ecut=    90.00 Ry     beta= 0.30
     Davidson diagonalization with overlap
     ethr =  5.18E-09,  avg # of iterations =  1.6

     negative rho (up, down):  3.612E-05 0.000E+00

     total cpu time spent up to now is    39583.8 secs

     total energy              =    -186.94177756 Ry
     Harris-Foulkes estimate   =    -186.94177753 Ry
     estimated scf accuracy    <       0.00001258 Ry

     iteration #  9     ecut=    90.00 Ry     beta= 0.30
     Davidson diagonalization with overlap
     ethr =  5.18E-09,  avg # of iterations =  1.0

     negative rho (up, down):  3.704E-05 0.000E+00

     total cpu time spent up to now is    39778.5 secs

     total energy              =    -186.94177747 Ry
     Harris-Foulkes estimate   =    -186.94177756 Ry
     estimated scf accuracy    <       0.00001409 Ry

     iteration # 10     ecut=    90.00 Ry     beta= 0.30
     Davidson diagonalization with overlap
     ethr =  5.18E-09,  avg # of iterations =  1.0

     negative rho (up, down):  3.754E-05 0.000E+00

     total cpu time spent up to now is    39973.1 secs

     total energy              =    -186.94177721 Ry
     Harris-Foulkes estimate   =    -186.94177749 Ry
     estimated scf accuracy    <       0.00000711 Ry

     iteration # 11     ecut=    90.00 Ry     beta= 0.30
     Davidson diagonalization with overlap
     ethr =  5.18E-09,  avg # of iterations =  2.9

     negative rho (up, down):  3.553E-05 0.000E+00

     total cpu time spent up to now is    40196.1 secs

     total energy              =    -186.94177732 Ry
     Harris-Foulkes estimate   =    -186.94177775 Ry
     estimated scf accuracy    <       0.00002827 Ry

     iteration # 12     ecut=    90.00 Ry     beta= 0.30
     Davidson diagonalization with overlap
     ethr =  5.18E-09,  avg # of iterations =  2.3

     negative rho (up, down):  3.326E-05 0.000E+00

     total cpu time spent up to now is    40403.2 secs

     total energy              =    -186.94177740 Ry
     Harris-Foulkes estimate   =    -186.94177749 Ry
     estimated scf accuracy    <       0.00000269 Ry

     iteration # 13     ecut=    90.00 Ry     beta= 0.30
     Davidson diagonalization with overlap
     ethr =  5.18E-09,  avg # of iterations =  2.0

     negative rho (up, down):  3.220E-05 0.000E+00

     total cpu time spent up to now is    40604.9 secs

     total energy              =    -186.94177744 Ry
     Harris-Foulkes estimate   =    -186.94177749 Ry
     estimated scf accuracy    <       0.00000202 Ry

     iteration # 14     ecut=    90.00 Ry     beta= 0.30
     Davidson diagonalization with overlap
     ethr =  4.50E-09,  avg # of iterations =  1.0

     negative rho (up, down):  5.232E-06 0.000E+00

     total cpu time spent up to now is    40793.2 secs

     End of self-consistent calculation

          k = 0.0000 0.0000 0.0000 ( 42639 PWs)   bands (ev):

    -8.5509  -8.4499  -8.2930  -8.1008  -7.8312  -7.5188  -7.1465  -6.7255
    -6.2576  -5.7292  -5.1498  -4.5070  -3.8299  -3.0903  -2.2607  -1.5931
    -0.6546   0.2508   1.1774   2.1463   3.1186   4.0974   5.0384   5.8649
     6.4213   6.6694   6.7260   7.1504

          k = 0.0000 0.0722 0.0000 ( 42542 PWs)   bands (ev):

    -8.4555  -8.3545  -8.1976  -8.0056  -7.7361  -7.4240  -7.0519  -6.6311
    -6.1635  -5.6354  -5.0564  -4.4140  -3.7373  -2.9981  -2.1683  -1.5037
    -0.5647   0.3399   1.2655   2.2335   3.2045   4.1821   5.1224   5.9504
     6.5117   6.7643   6.8189   7.2409

          k = 0.0000 0.1443 0.0000 ( 42560 PWs)   bands (ev):

    -8.1694  -8.0686  -7.9120  -7.7203  -7.4513  -7.1397  -6.7683  -6.3483
    -5.8815  -5.3544  -4.7765  -4.1353  -3.4599  -2.7221  -1.8918  -1.2359
    -0.2961   0.6061   1.5286   2.4927   3.4591   4.4314   5.3672   6.1973
     6.7755   7.0470   7.0932   7.5033

          k = 0.0000 0.2165 0.0000 ( 42572 PWs)   bands (ev):

    -7.6939  -7.5934  -7.4372  -7.2461  -6.9779  -6.6672  -6.2969  -5.8782
    -5.4130  -4.8876  -4.3116  -3.6725  -2.9995  -2.2642  -1.4341  -0.7907
     0.1484   1.0449   1.9598   2.9128   3.8633   4.8086   5.6960   6.4380
     6.9380   7.0751   7.1986   7.2605

          k = 0.0000 0.2887 0.0000 ( 42704 PWs)   bands (ev):

    -7.0307  -6.9306  -6.7750  -6.5848  -6.3177  -6.0084  -5.6398  -5.2229
    -4.7599  -4.2371  -3.6640  -3.0283  -2.3591  -1.6284  -0.8017  -0.1715
     0.7587   1.6390   2.5250   3.4087   4.1495   4.5845   4.9091   5.1093
     5.2022   5.3657   5.6596   5.7431

          k = 0.0000 0.3608 0.0000 ( 42842 PWs)   bands (ev):

    -6.1825  -6.0829  -5.9281  -5.7391  -5.4735  -5.1661  -4.7996  -4.3855
    -3.9256  -3.4065  -2.8379  -2.2077  -1.5455  -0.8247  -0.0145   0.6058
     1.4701   2.1634   2.4541   2.6264   2.8682   3.1580   3.4488   3.6015
     3.7646   3.9997   4.3894   4.4887

          k = 0.0000 0.4330 0.0000 ( 42880 PWs)   bands (ev):

    -5.1527  -5.0537  -4.9000  -4.7125  -4.4489  -4.1441  -3.7808  -3.3705
    -2.9154  -2.4026  -1.8426  -1.2253  -0.5848   0.0860   0.6736   0.6847
     0.7640   0.8883   1.1008   1.4006   1.7280   1.9679   2.1962   2.5417
     2.7865   2.9647   3.4495   3.6018

          k = 0.0000 0.5052 0.0000 ( 42862 PWs)   bands (ev):

    -3.9459  -3.8478  -3.6955  -3.5103  -3.2497  -2.9489  -2.5911  -2.1887
    -1.7468  -1.2698  -1.0214  -0.9205  -0.7923  -0.6798  -0.6094  -0.3757
    -0.1702  -0.1270   0.1966   0.5856   0.9930   1.3825   1.5873   1.8190
     2.3146   2.3735   2.8427   2.9367

          k = 0.0000-0.5774 0.0000 ( 42798 PWs)   bands (ev):

    -2.5704  -2.5687  -2.4743  -2.4723  -2.3270  -2.3227  -2.1530  -2.1431
    -1.9335  -1.8360  -1.5965  -1.5515  -1.2568  -1.2120  -0.8789  -0.8330
    -0.4793  -0.4638  -0.0990   0.2982   0.7522   1.0880   1.4456   1.5391
     2.0767   2.1253   2.7844   2.8036

          k = 0.0625 0.1083 0.0000 ( 42534 PWs)   bands (ev):

    -8.2647  -8.1639  -8.0071  -7.8153  -7.5462  -7.2344  -6.8628  -6.4425
    -5.9755  -5.4480  -4.8697  -4.2281  -3.5523  -2.8140  -1.9838  -1.3251
    -0.3855   0.5176   1.4412   2.4067   3.3750   4.3494   5.2874   6.1176
     6.6897   6.9535   7.0029   7.4196

          k = 0.0625 0.1804 0.0000 ( 42544 PWs)   bands (ev):

    -7.8839  -7.7833  -7.6269  -7.4356  -7.1671  -6.8560  -6.4853  -6.0661
    -5.6002  -5.0741  -4.4973  -3.8574  -3.1834  -2.4470  -1.6167  -0.9685
    -0.0287   0.8704   1.7890   2.7478   3.7074   4.6702   5.5945   6.4172
     7.0120   7.3190   7.3531   7.7121

          k = 0.0625 0.2526 0.0000 ( 42670 PWs)   bands (ev):

    -7.3146  -7.2143  -7.0584  -6.8678  -6.6003  -6.2904  -5.9210  -5.5034
    -5.0394  -4.5154  -3.9410  -3.3038  -2.6328  -1.9000  -1.0711  -0.4359
     0.5000   1.3900   2.2949   3.2302   4.1463   4.9986   5.6267   6.0275
     6.1117   6.2624   6.4414   6.5419

          k = 0.0625 0.3248 0.0000 ( 42782 PWs)   bands (ev):

    -6.5589  -6.4590  -6.3039  -6.1143  -5.8480  -5.5398  -5.1723  -4.7569
    -4.2956  -3.7747  -3.2040  -2.5711  -1.9052  -1.1789  -0.3578   0.2660
     1.1793   2.0293   2.8284   3.3833   3.6552   3.9278   4.2176   4.3602
     4.4965   4.6974   5.0425   5.1303

          k = 0.0625 0.3969 0.0000 ( 42859 PWs)   bands (ev):

    -5.6199  -5.5206  -5.3663  -5.1781  -4.9136  -4.6075  -4.2427  -3.8305
    -3.3730  -2.8569  -2.2921  -1.6671  -1.0122  -0.3042   0.4712   1.0751
     1.5902   1.6374   1.7786   1.9953   2.2762   2.5909   2.8788   3.0674
     3.2987   3.5042   3.8857   4.1113

          k = 0.0625 0.4691 0.0000 ( 42871 PWs)   bands (ev):

    -4.5015  -4.4029  -4.2498  -4.0635  -3.8014  -3.4984  -3.1376  -2.7305
    -2.2798  -1.7736  -1.2247  -0.6335  -0.1155  -0.0980   0.0383   0.1138
     0.2557   0.3887   0.6282   0.9895   1.3884   1.7890   1.9524   2.2011
     2.3487   2.6702   3.2001   3.3017

          k = 0.0625 0.5413 0.0000 ( 42803 PWs)   bands (ev):

    -3.2092  -3.1118  -2.9607  -2.7774  -2.5198  -2.2241  -1.8801  -1.7590
    -1.6683  -1.5290  -1.4215  -1.3119  -1.0767  -1.0153  -0.7862  -0.5713
    -0.4467  -0.2256   0.0246   0.4431   0.8756   1.2347   1.5293   1.6767
     2.1887   2.2514   2.8684   3.0073

          k = 0.1250 0.2165 0.0000 ( 42642 PWs)   bands (ev):

    -7.4093  -7.3090  -7.1530  -6.9623  -6.6946  -6.3845  -6.0149  -5.5970
    -5.1327  -4.6083  -4.0335  -3.3958  -2.7243  -1.9908  -1.1614  -0.5243
     0.4130   1.3054   2.2147   3.1590   4.0969   5.0208   5.8727   6.5650
     7.0246   7.2983   7.3004   7.3210

          k = 0.1250 0.2887 0.0000 ( 42722 PWs)   bands (ev):

    -6.7475  -6.6475  -6.4921  -6.3023  -6.0357  -5.7270  -5.3591  -4.9431
    -4.4811  -3.9594  -3.3876  -2.7535  -2.0860  -1.3575  -0.5328   0.0930
     1.0186   1.8927   2.7697   3.6406   4.3756   4.8149   5.1272   5.3479
     5.4090   5.6014   5.7985   5.8928

          k = 0.1250 0.3608 0.0000 ( 42813 PWs)   bands (ev):

    -5.9009  -5.8014  -5.6469  -5.4583  -5.1932  -4.8864  -4.5208  -4.1075
    -3.6487  -3.1309  -2.5639  -1.9356  -1.2756  -0.5578   0.2484   0.8667
     1.7233   2.4150   2.7134   2.8835   3.1216   3.4060   3.6957   3.8395
     3.9906   4.2379   4.6161   4.6423

          k = 0.1250 0.4330 0.0000 ( 42833 PWs)   bands (ev):

    -4.8732  -4.7743  -4.6209  -4.4339  -4.1708  -3.8667  -3.5043  -3.0950
    -2.6413  -2.1301  -1.5720  -0.9571  -0.3198   0.3473   0.9362   0.9495
     1.0302   1.1520   1.3610   1.6572   1.9826   2.2317   2.4584   2.8011
     3.0027   3.2164   3.6916   3.7726

          k = 0.1250 0.5052 0.0000 ( 42832 PWs)   bands (ev):

    -3.6689  -3.5709  -3.4190  -3.2343  -2.9744  -2.6744  -2.3178  -1.9168
    -1.4768  -1.0026  -0.7510  -0.6492  -0.5226  -0.4124  -0.3400  -0.1077
     0.0927   0.1389   0.4597   0.8464   1.2520   1.6422   1.8434   2.0753
     2.5582   2.6057   3.0850   3.1705

          k = 0.1250 0.5774 0.0000 ( 42796 PWs)   bands (ev):

    -2.2965  -2.2948  -2.2008  -2.1987  -2.0541  -2.0496  -1.8816  -1.8709
    -1.6638  -1.5621  -1.3250  -1.2781  -0.9871  -0.9409  -0.6114  -0.5643
    -0.2144  -0.1985   0.1640   0.5606   1.0118   1.3501   1.7043   1.7931
     2.3247   2.3669   3.0154   3.0232

          k = 0.1875 0.3248 0.0000 ( 42828 PWs)   bands (ev):

    -5.9947  -5.8952  -5.7405  -5.5518  -5.2865  -4.9795  -4.6136  -4.2000
    -3.7408  -3.2225  -2.6548  -2.0256  -1.3642  -0.6439   0.1685   0.7874
     1.6777   2.4957   3.2367   3.7510   3.9859   4.1331   4.2782   4.4332
     4.5969   4.7104   4.7391   4.7926

          k = 0.1875 0.3969 0.0000 ( 42855 PWs)   bands (ev):

    -5.0594  -4.9605  -4.8068  -4.6195  -4.3560  -4.0513  -3.6882  -3.2780
    -2.8230  -2.3100  -1.7490  -1.1288  -0.4803   0.2186   0.9786   1.5788
     2.1059   2.1585   2.2906   2.4987   2.7660   3.0574   3.3105   3.3828
     3.5412   3.5834   3.7176   3.9288

          k = 0.1875 0.4691 0.0000 ( 42859 PWs)   bands (ev):

    -3.9456  -3.8474  -3.6950  -3.5097  -3.2488  -2.9475  -2.5886  -2.1841
    -1.7367  -1.2346  -0.6910  -0.1064   0.4148   0.4367   0.5676   0.6456
     0.7877   0.9125   1.1449   1.4975   1.8843   2.2728   2.4024   2.6699
     2.8022   3.0526   3.2300   3.2757

          k = 0.1875 0.5413 0.0000 ( 42829 PWs)   bands (ev):

    -2.6590  -2.5621  -2.4118  -2.2298  -1.9739  -1.6806  -1.3407  -1.2167
    -1.1273  -0.9892  -0.8771  -0.7688  -0.5381  -0.4783  -0.2496  -0.0420
     0.0855   0.2994   0.5468   0.9596   1.3826   1.7365   2.0113   2.1556
     2.5990   2.6688   3.0906   3.0951

          k = 0.2500 0.4330 0.0000 ( 42872 PWs)   bands (ev):

    -4.0380  -3.9398  -3.7872  -3.6016  -3.3405  -3.0388  -2.6794  -2.2739
    -1.8251  -1.3204  -0.7712  -0.1695   0.4471   1.0773   1.6288   1.7351
     1.7379   1.8121   1.8178   1.8767   1.9143   2.0035   2.1470   2.3338
     2.5483   2.7866   3.0018   3.0251

          k = 0.2500 0.5052 0.0000 ( 42827 PWs)   bands (ev):

    -2.8415  -2.7443  -2.5934  -2.4105  -2.1529  -1.8561  -1.5035  -1.1081
    -0.6755  -0.2104   0.0545   0.1574   0.2792   0.3692   0.4609   0.6881
     0.8535   0.9274   1.2142   1.4621   1.5239   1.5708   1.6831   1.8242
     1.9120   2.0326   2.2581   2.4526

          k = 0.2500 0.5774 0.0000 ( 42738 PWs)   bands (ev):

    -1.4789  -1.4770  -1.3842  -1.3820  -1.2397  -1.2346  -1.0719  -1.0584
    -0.8580  -0.7478  -0.5175  -0.4669  -0.1874  -0.1373   0.1782   0.2312
     0.5618   0.5891   0.9275   1.2762   1.3686   1.4516   1.6048   1.7286
     1.7712   1.9890   2.0740   2.2056

          k = 0.3125 0.5413 0.0000 ( 42748 PWs)   bands (ev):

    -1.5671  -1.4715  -1.3234  -1.1450  -0.8948  -0.6106  -0.2896  -0.1424
    -0.1401  -0.0734  -0.0358   0.0645   0.1185   0.2165   0.2781   0.3040
     0.4871   0.5374   0.6154   0.7986   0.8446   0.9782   1.0921   1.1566
     1.2968   1.3639   1.5453   1.8363

     the Fermi energy is     2.7391 ev

!    total energy              =    -186.94177735 Ry
     Harris-Foulkes estimate   =    -186.94177747 Ry
     estimated scf accuracy    <       0.00000014 Ry

     The total energy is the sum of the following terms:

     one-electron contribution =   -3918.98071724 Ry
     hartree contribution      =    1973.14117069 Ry
     xc contribution           =    -150.36249909 Ry
     ewald contribution        =    1909.25874618 Ry
     smearing contrib. (-TS)   =       0.00152211 Ry

     convergence has been achieved in  14 iterations

     negative rho (up, down):  5.232E-06 0.000E+00

     Forces acting on atoms (cartesian axes, Ry/au):

     atom    1 type  1   force =     0.00000000   -0.00000000   -0.00074046
     atom    2 type  1   force =    -0.00000000   -0.00000000    0.00014450
     atom    3 type  1   force =     0.00000000    0.00000000   -0.00061032
     atom    4 type  1   force =     0.00000000   -0.00000000   -0.00046328
     atom    5 type  1   force =     0.00000000    0.00000000    0.00005542
     atom    6 type  1   force =     0.00000000    0.00000000    0.00020176
     atom    7 type  1   force =     0.00000000    0.00000000    0.00000357
     atom    8 type  1   force =    -0.00000000   -0.00000000    0.00059006
     atom    9 type  1   force =     0.00000000    0.00000000   -0.00057677
     atom   10 type  1   force =     0.00000000    0.00000000    0.00045619
     atom   11 type  1   force =     0.00000000    0.00000000   -0.00022723
     atom   12 type  1   force =     0.00000000    0.00000000   -0.00003815
     atom   13 type  1   force =     0.00000000    0.00000000    0.00073765
     atom   14 type  1   force =    -0.00000000   -0.00000000    0.00062883
     atom   15 type  1   force =     0.00000000   -0.00000000   -0.00016178

     Total force =     0.001763     Total SCF correction =     0.000620
     SCF correction compared to forces is large: reduce conv_thr to get better values


     Computing stress (Cartesian axis) and pressure


     negative rho (up, down):  5.232E-06 0.000E+00
          total   stress  (Ry/bohr**3)                   (kbar)     P=   -3.17
  -0.00004256   0.00000000   0.00000000         -6.26      0.00      0.00
   0.00000000  -0.00004256  -0.00000000          0.00     -6.26     -0.00
   0.00000000   0.00000000   0.00002055          0.00      0.00      3.02


     bfgs converged in  11 scf cycles and  10 bfgs steps
     (criteria: energy <  1.0E-04 Ry, force <  1.0E-03 Ry/Bohr)

     End of BFGS Geometry Optimization

     Final energy   =    -186.9417773484 Ry
Begin final coordinates

ATOMIC_POSITIONS (crystal)
Al       0.666666600   0.333333300   0.036927979
Al      -0.000000000  -0.000000000  -0.000591288
Al       0.333333300   0.666666600   0.074015360
Al       0.666666600   0.333333300   0.148311033
Al      -0.000000000  -0.000000000   0.111251133
Al       0.333333300   0.666666600   0.185260147
Al       0.666666600   0.333333300   0.259256890
Al       0.000000000   0.000000000   0.222111645
Al       0.333333300   0.666666600   0.296405074
Al       0.666666600   0.333333300   0.370208644
Al      -0.000000000  -0.000000000   0.333262341
Al       0.333333300   0.666666600   0.407263112
Al       0.666666600   0.333333300   0.481592804
Al       0.000000000   0.000000000   0.444499219
Al       0.333333300   0.666666600   0.519114739
End final coordinates



     Writing output data file Al_111_5_4.save/

     init_run     :    180.43s CPU    185.18s WALL (       1 calls)
     electrons    :  37876.74s CPU  39382.03s WALL (      11 calls)
     update_pot   :      7.74s CPU      7.91s WALL (      10 calls)
     forces       :    555.23s CPU    558.57s WALL (      11 calls)
     stress       :    768.05s CPU    778.03s WALL (      11 calls)

     Called by init_run:
     wfcinit      :    178.79s CPU    183.45s WALL (       1 calls)
     potinit      :      0.39s CPU      0.41s WALL (       1 calls)
     hinit0       :      0.94s CPU      0.95s WALL (       1 calls)

     Called by electrons:
     c_bands      :  32478.27s CPU  33736.61s WALL (     182 calls)
     sum_band     :   4018.97s CPU   4191.37s WALL (     182 calls)
     v_of_rho     :     45.03s CPU     46.88s WALL (     193 calls)
     newd         :     37.23s CPU     37.87s WALL (     193 calls)
     mix_rho      :   1300.27s CPU   1372.21s WALL (     182 calls)

     Called by c_bands:
     init_us_2    :    316.57s CPU    322.42s WALL (   11610 calls)
     cegterg      :  31933.17s CPU  33178.18s WALL (    5460 calls)

     Called by sum_band:
     sum_band:bec :      0.57s CPU      0.68s WALL (    5460 calls)
     addusdens    :     32.87s CPU     33.30s WALL (     182 calls)

     Called by *egterg:
     h_psi        :  15482.35s CPU  16397.16s WALL (   16987 calls)
     s_psi        :   4355.86s CPU   4373.33s WALL (   16987 calls)
     g_psi        :    118.26s CPU    123.91s WALL (   11497 calls)
     cdiaghg      :     59.59s CPU     67.18s WALL (   16657 calls)

     Called by h_psi:
     h_psi:pot    :  15384.68s CPU  16196.32s WALL (   16987 calls)
     h_psi:calbec :   4692.75s CPU   4712.59s WALL (   16987 calls)
     vloc_psi     :   6335.02s CPU   7112.00s WALL (   16987 calls)
     add_vuspsi   :   4354.58s CPU   4369.25s WALL (   16987 calls)

     General routines
     calbec       :   7460.32s CPU   7488.77s WALL (   24097 calls)
     fft          :     30.62s CPU     32.16s WALL (    2408 calls)
     ffts         :    837.70s CPU    883.28s WALL (   65415 calls)
     fftw         :   6209.71s CPU   6799.45s WALL (  828348 calls)

     Parallel routines

     PWSCF        :     10h56m CPU     11h21m WALL


   This run was terminated on:   1:49:37  30May2020            

=------------------------------------------------------------------------------=
   JOB DONE.
=------------------------------------------------------------------------------=
