
     Program PWSCF v.6.4.1 starts on  6Jun2020 at 22:30: 9 

     This program is part of the open-source Quantum ESPRESSO suite
     for quantum simulation of materials; please cite
         "P. Giannozzi et al., J. Phys.:Condens. Matter 21 395502 (2009);
         "P. Giannozzi et al., J. Phys.:Condens. Matter 29 465901 (2017);
          URL http://www.quantum-espresso.org", 
     in publications or presentations arising from this work. More details at
     http://www.quantum-espresso.org/quote

     Parallel version (MPI & OpenMP), running on       1 processor cores
     Number of MPI processes:                 1
     Threads/MPI process:                     1

     MPI processes distributed on     1 nodes
     Reading input from Al_111_H21_br_site_1.pw.in

     Current dimensions of program PWSCF are:
     Max number of different atomic species (ntypx) = 10
     Max number of k-points (npk) =  40000
     Max angular momentum in pseudopotentials (lmaxx) =  3
               file H.pbe-rrkjus.UPF: wavefunction(s)  1S renormalized

     Subspace diagonalization in iterative solution of the eigenvalue problem:
     a serial algorithm will be used

 
     G-vector sticks info
     --------------------
     sticks:   dense  smooth     PW     G-vecs:    dense   smooth      PW
     Sum        1189     955    271               490481   351617   53557
 


     bravais-lattice index     =            4
     lattice parameter (alat)  =      10.7520  a.u.
     unit-cell volume          =   15820.6847 (a.u.)^3
     number of atoms/cell      =           37
     number of atomic types    =            2
     number of electrons       =       109.00
     number of Kohn-Sham states=           66
     kinetic-energy cutoff     =      30.0000  Ry
     charge density cutoff     =     150.0000  Ry
     convergence threshold     =      3.6E-05
     mixing beta               =       0.3000
     number of iterations used =            8  local-TF  mixing
     Exchange-correlation      =  SLA  PW   PBE  PBE ( 1  4  3  4 0 0)
     nstep                     =           50


     celldm(1)=  10.752000  celldm(2)=   0.000000  celldm(3)=  14.696938
     celldm(4)=   0.000000  celldm(5)=   0.000000  celldm(6)=   0.000000

     crystal axes: (cart. coord. in units of alat)
               a(1) = (   1.000000   0.000000   0.000000 )  
               a(2) = (  -0.500000   0.866025   0.000000 )  
               a(3) = (   0.000000   0.000000  14.696938 )  

     reciprocal axes: (cart. coord. in units 2 pi/alat)
               b(1) = (  1.000000  0.577350  0.000000 )  
               b(2) = (  0.000000  1.154701  0.000000 )  
               b(3) = (  0.000000  0.000000  0.068041 )  


     PseudoPot. # 1 for Al read from file:
     ./Al.pbe-n-van.UPF
     MD5 check sum: b11ded24487aef5bc42d5c7a2e22a7b6
     Pseudo is Ultrasoft + core correction, Zval =  3.0
     Generated by new atomic code, or converted to UPF format
     Using radial grid of  893 points,  2 beta functions with: 
                l(1) =   0
                l(2) =   1
     Q(r) pseudized with  8 coefficients,  rinner =    0.900   0.900   0.900


     PseudoPot. # 2 for H  read from file:
     ./H.pbe-rrkjus.UPF
     MD5 check sum: 0433647300470310da31d564c103eed6
     Pseudo is Ultrasoft, Zval =  1.0
     Generated by new atomic code, or converted to UPF format
     Using radial grid of 1061 points,  2 beta functions with: 
                l(1) =   0
                l(2) =   0
     Q(r) pseudized with 0 coefficients 


     atomic species   valence    mass     pseudopotential
        Al             3.00    26.98000     Al( 1.00)
        H              1.00     1.00790     H ( 1.00)

      2 Sym. Ops. (no inversion) found



   Cartesian axes

     site n.     atom                  positions (alat units)
         1           Al  tau(   1) = (   0.2500002   0.1443374   0.8164957  )
         2           Al  tau(   2) = (   0.0000002   0.5773501   0.8164957  )
         3           Al  tau(   3) = (   0.7500002   0.1443374   0.8164957  )
         4           Al  tau(   4) = (   0.5000002   0.5773501   0.8164957  )
         5           Al  tau(   5) = (   0.0000000   0.0000000   0.0000000  )
         6           Al  tau(   6) = (  -0.2500000   0.4330127   0.0000000  )
         7           Al  tau(   7) = (   0.5000000   0.0000000   0.0000000  )
         8           Al  tau(   8) = (   0.2500000   0.4330127   0.0000000  )
         9           Al  tau(   9) = (  -0.0000003   0.2886753   1.6329939  )
        10           Al  tau(  10) = (  -0.2500003   0.7216880   1.6329939  )
        11           Al  tau(  11) = (   0.4999998   0.2886753   1.6329939  )
        12           Al  tau(  12) = (   0.2499998   0.7216880   1.6329939  )
        13           Al  tau(  13) = (   0.2500002   0.1443374   3.2659855  )
        14           Al  tau(  14) = (   0.0000002   0.5773501   3.2659855  )
        15           Al  tau(  15) = (   0.7500002   0.1443374   3.2659855  )
        16           Al  tau(  16) = (   0.5000002   0.5773501   3.2659855  )
        17           Al  tau(  17) = (   0.0000000   0.0000000   2.4494897  )
        18           Al  tau(  18) = (  -0.2500000   0.4330127   2.4494897  )
        19           Al  tau(  19) = (   0.5000000   0.0000000   2.4494897  )
        20           Al  tau(  20) = (   0.2500000   0.4330127   2.4494897  )
        21           Al  tau(  21) = (  -0.0000003   0.2886753   4.0824837  )
        22           Al  tau(  22) = (  -0.2500003   0.7216880   4.0824837  )
        23           Al  tau(  23) = (   0.4999998   0.2886753   4.0824837  )
        24           Al  tau(  24) = (   0.2499998   0.7216880   4.0824837  )
        25           Al  tau(  25) = (   0.2500002   0.1443374   5.7154752  )
        26           Al  tau(  26) = (   0.0000002   0.5773501   5.7154752  )
        27           Al  tau(  27) = (   0.7500002   0.1443374   5.7154752  )
        28           Al  tau(  28) = (   0.5000002   0.5773501   5.7154752  )
        29           Al  tau(  29) = (   0.0000000   0.0000000   4.8989795  )
        30           Al  tau(  30) = (  -0.2500000   0.4330127   4.8989795  )
        31           Al  tau(  31) = (   0.5000000   0.0000000   4.8989795  )
        32           Al  tau(  32) = (   0.2500000   0.4330127   4.8989795  )
        33           Al  tau(  33) = (  -0.0000003   0.2886753   6.5319734  )
        34           Al  tau(  34) = (  -0.2500003   0.7216880   6.5319734  )
        35           Al  tau(  35) = (   0.4999998   0.2886753   6.5319734  )
        36           Al  tau(  36) = (   0.2499998   0.7216880   6.5319734  )
        37           H   tau(  37) = (   0.1249999   0.0721688   6.5319734  )

     number of k points=   111  Marzari-Vanderbilt smearing, width (Ry)=  0.0250

     Number of k-points >= 100: set verbosity='high' to print them.

     Dense  grid:   490481 G-vectors     FFT dimensions: (  45,  45, 625)

     Smooth grid:   351617 G-vectors     FFT dimensions: (  40,  40, 576)

     Estimated max dynamical RAM per process >       6.15 GB

     Initial potential from superposition of free atoms

     starting charge  108.81504, renormalised to  109.00000

     negative rho (up, down):  3.372E-04 0.000E+00
     Starting wfcs are  145 randomized atomic wfcs

     total cpu time spent up to now is      528.1 secs

     Self-consistent Calculation

     iteration #  1     ecut=    30.00 Ry     beta= 0.30
     Davidson diagonalization with overlap
     ethr =  1.00E-02,  avg # of iterations =  4.0

     negative rho (up, down):  5.967E-03 0.000E+00

     total cpu time spent up to now is     1463.0 secs

     total energy              =    -449.98692154 Ry
     Harris-Foulkes estimate   =    -453.45841276 Ry
     estimated scf accuracy    <    1399.71475101 Ry

     iteration #  2     ecut=    30.00 Ry     beta= 0.30
     Davidson diagonalization with overlap
     ethr =  1.00E-02,  avg # of iterations =  1.1

     negative rho (up, down):  1.439E-01 0.000E+00

     total cpu time spent up to now is     2058.6 secs

     total energy              =    -444.21131689 Ry
     Harris-Foulkes estimate   =    -450.46700608 Ry
     estimated scf accuracy    <     742.14405582 Ry

     iteration #  3     ecut=    30.00 Ry     beta= 0.30
     Davidson diagonalization with overlap
     ethr =  1.00E-02,  avg # of iterations =  5.5

     negative rho (up, down):  1.934E-01 0.000E+00

     total cpu time spent up to now is     2822.2 secs

     total energy              =    -447.96763455 Ry
     Harris-Foulkes estimate   =    -447.52344069 Ry
     estimated scf accuracy    <      34.08653921 Ry

     iteration #  4     ecut=    30.00 Ry     beta= 0.30
     Davidson diagonalization with overlap
     ethr =  1.00E-02,  avg # of iterations =  1.3

     negative rho (up, down):  1.290E-01 0.000E+00

     total cpu time spent up to now is     3416.7 secs

     total energy              =    -446.21427848 Ry
     Harris-Foulkes estimate   =    -448.07847954 Ry
     estimated scf accuracy    <      83.84443257 Ry

     iteration #  5     ecut=    30.00 Ry     beta= 0.30
     Davidson diagonalization with overlap
     ethr =  1.00E-02,  avg # of iterations =  5.8

     negative rho (up, down):  1.011E-01 0.000E+00

     total cpu time spent up to now is     4190.4 secs

     total energy              =    -447.73882396 Ry
     Harris-Foulkes estimate   =    -448.19871802 Ry
     estimated scf accuracy    <      44.57914751 Ry

     iteration #  6     ecut=    30.00 Ry     beta= 0.30
     Davidson diagonalization with overlap
     ethr =  1.00E-02,  avg # of iterations =  1.4

     negative rho (up, down):  9.511E-02 0.000E+00

     total cpu time spent up to now is     4789.9 secs

     total energy              =    -447.72107844 Ry
     Harris-Foulkes estimate   =    -447.85114598 Ry
     estimated scf accuracy    <      20.31300856 Ry

     iteration #  7     ecut=    30.00 Ry     beta= 0.30
     Davidson diagonalization with overlap
     ethr =  1.00E-02,  avg # of iterations =  1.0

     negative rho (up, down):  9.524E-02 0.000E+00

     total cpu time spent up to now is     5382.3 secs

     total energy              =    -447.76408968 Ry
     Harris-Foulkes estimate   =    -447.76289233 Ry
     estimated scf accuracy    <       5.23044209 Ry

     iteration #  8     ecut=    30.00 Ry     beta= 0.30
     Davidson diagonalization with overlap
     ethr =  4.80E-03,  avg # of iterations =  1.2

     negative rho (up, down):  8.607E-02 0.000E+00

     total cpu time spent up to now is     5984.2 secs

     total energy              =    -447.70702625 Ry
     Harris-Foulkes estimate   =    -447.77805104 Ry
     estimated scf accuracy    <       6.66085986 Ry

     iteration #  9     ecut=    30.00 Ry     beta= 0.30
     Davidson diagonalization with overlap
     ethr =  4.80E-03,  avg # of iterations =  1.2

     negative rho (up, down):  7.817E-02 0.000E+00

     total cpu time spent up to now is     6576.7 secs

     total energy              =    -447.73369410 Ry
     Harris-Foulkes estimate   =    -447.74461255 Ry
     estimated scf accuracy    <       0.09130578 Ry

     iteration # 10     ecut=    30.00 Ry     beta= 0.30
     Davidson diagonalization with overlap
     c_bands:  1 eigenvalues not converged
     c_bands:  1 eigenvalues not converged
     c_bands:  2 eigenvalues not converged
     c_bands:  1 eigenvalues not converged
     c_bands:  5 eigenvalues not converged
     c_bands:  2 eigenvalues not converged
     c_bands:  1 eigenvalues not converged
     c_bands:  1 eigenvalues not converged
     c_bands:  1 eigenvalues not converged
     c_bands:  1 eigenvalues not converged
     c_bands:  1 eigenvalues not converged
     c_bands:  2 eigenvalues not converged
     c_bands:  1 eigenvalues not converged
     c_bands:  1 eigenvalues not converged
     c_bands:  1 eigenvalues not converged
     c_bands:  1 eigenvalues not converged
     c_bands:  3 eigenvalues not converged
     c_bands:  2 eigenvalues not converged
     c_bands:  3 eigenvalues not converged
     ethr =  8.38E-05,  avg # of iterations = 12.8

     negative rho (up, down):  7.671E-02 0.000E+00

     total cpu time spent up to now is     7600.8 secs

     total energy              =    -447.82796991 Ry
     Harris-Foulkes estimate   =    -447.81286323 Ry
     estimated scf accuracy    <       7.99195688 Ry

     iteration # 11     ecut=    30.00 Ry     beta= 0.30
     Davidson diagonalization with overlap
     ethr =  8.38E-05,  avg # of iterations =  2.3

     negative rho (up, down):  8.058E-02 0.000E+00

     total cpu time spent up to now is     8217.9 secs

     total energy              =    -447.72957236 Ry
     Harris-Foulkes estimate   =    -447.83002729 Ry
     estimated scf accuracy    <      12.25234884 Ry

     iteration # 12     ecut=    30.00 Ry     beta= 0.30
     Davidson diagonalization with overlap
     c_bands:  5 eigenvalues not converged
     c_bands:  2 eigenvalues not converged
     c_bands:  4 eigenvalues not converged
     c_bands:  4 eigenvalues not converged
     c_bands:  1 eigenvalues not converged
     c_bands:  4 eigenvalues not converged
     ethr =  8.38E-05,  avg # of iterations =  6.9

     negative rho (up, down):  7.729E-02 0.000E+00

     total cpu time spent up to now is     8977.3 secs

     total energy              =    -447.74791995 Ry
     Harris-Foulkes estimate   =    -447.78243520 Ry
     estimated scf accuracy    <       1.32321778 Ry

     iteration # 13     ecut=    30.00 Ry     beta= 0.30
     Davidson diagonalization with overlap
     c_bands:  1 eigenvalues not converged
     ethr =  8.38E-05,  avg # of iterations =  3.9

     negative rho (up, down):  7.521E-02 0.000E+00

     total cpu time spent up to now is     9632.2 secs

     total energy              =    -447.75014030 Ry
     Harris-Foulkes estimate   =    -447.77119582 Ry
     estimated scf accuracy    <       2.14290969 Ry

     iteration # 14     ecut=    30.00 Ry     beta= 0.30
     Davidson diagonalization with overlap
     c_bands:  1 eigenvalues not converged
     ethr =  8.38E-05,  avg # of iterations =  2.9

     negative rho (up, down):  7.557E-02 0.000E+00

     total cpu time spent up to now is    10278.7 secs

     total energy              =    -447.78432850 Ry
     Harris-Foulkes estimate   =    -447.76896073 Ry
     estimated scf accuracy    <       1.14331641 Ry

     iteration # 15     ecut=    30.00 Ry     beta= 0.30
     Davidson diagonalization with overlap
     c_bands:  1 eigenvalues not converged
     c_bands:  3 eigenvalues not converged
     ethr =  8.38E-05,  avg # of iterations =  5.4

     negative rho (up, down):  6.735E-02 0.000E+00

     total cpu time spent up to now is    10970.3 secs

     total energy              =    -447.78195563 Ry
     Harris-Foulkes estimate   =    -447.80009161 Ry
     estimated scf accuracy    <      11.24838718 Ry

     iteration # 16     ecut=    30.00 Ry     beta= 0.30
     Davidson diagonalization with overlap
     c_bands:  1 eigenvalues not converged
     ethr =  8.38E-05,  avg # of iterations =  2.0

     negative rho (up, down):  6.127E-02 0.000E+00

     total cpu time spent up to now is    11579.5 secs

     total energy              =    -447.80928593 Ry
     Harris-Foulkes estimate   =    -447.78702317 Ry
     estimated scf accuracy    <       5.97914052 Ry

     iteration # 17     ecut=    30.00 Ry     beta= 0.30
     Davidson diagonalization with overlap
     ethr =  8.38E-05,  avg # of iterations =  2.2

     negative rho (up, down):  4.907E-02 0.000E+00

     total cpu time spent up to now is    12199.0 secs

     total energy              =    -447.74326180 Ry
     Harris-Foulkes estimate   =    -447.81654125 Ry
     estimated scf accuracy    <      13.90340202 Ry

     iteration # 18     ecut=    30.00 Ry     beta= 0.30
     Davidson diagonalization with overlap
     ethr =  8.38E-05,  avg # of iterations =  3.5

     negative rho (up, down):  4.511E-02 0.000E+00

     total cpu time spent up to now is    12835.2 secs

     total energy              =    -447.74779036 Ry
     Harris-Foulkes estimate   =    -447.77280596 Ry
     estimated scf accuracy    <       1.15063710 Ry

     iteration # 19     ecut=    30.00 Ry     beta= 0.30
     Davidson diagonalization with overlap
     c_bands:  1 eigenvalues not converged
     c_bands:  2 eigenvalues not converged
     c_bands:  1 eigenvalues not converged
     c_bands:  2 eigenvalues not converged
     ethr =  8.38E-05,  avg # of iterations =  4.4

     negative rho (up, down):  4.209E-02 0.000E+00

     total cpu time spent up to now is    13497.5 secs

     total energy              =    -447.74954017 Ry
     Harris-Foulkes estimate   =    -447.76573012 Ry
     estimated scf accuracy    <       2.16611560 Ry

     iteration # 20     ecut=    30.00 Ry     beta= 0.30
     Davidson diagonalization with overlap
     c_bands:  1 eigenvalues not converged
     ethr =  8.38E-05,  avg # of iterations =  1.8

     negative rho (up, down):  3.571E-02 0.000E+00

     total cpu time spent up to now is    14103.2 secs

     total energy              =    -447.75475020 Ry
     Harris-Foulkes estimate   =    -447.75867255 Ry
     estimated scf accuracy    <       0.11450288 Ry

     iteration # 21     ecut=    30.00 Ry     beta= 0.30
     Davidson diagonalization with overlap
     ethr =  8.38E-05,  avg # of iterations =  1.2

     negative rho (up, down):  3.768E-02 0.000E+00

     total cpu time spent up to now is    14698.2 secs

     total energy              =    -447.75593634 Ry
     Harris-Foulkes estimate   =    -447.75694729 Ry
     estimated scf accuracy    <       0.08885184 Ry

     iteration # 22     ecut=    30.00 Ry     beta= 0.30
     Davidson diagonalization with overlap
     ethr =  8.15E-05,  avg # of iterations =  1.0

     negative rho (up, down):  3.681E-02 0.000E+00

     total cpu time spent up to now is    15289.9 secs

     total energy              =    -447.75502358 Ry
     Harris-Foulkes estimate   =    -447.75645868 Ry
     estimated scf accuracy    <       0.13779636 Ry

     iteration # 23     ecut=    30.00 Ry     beta= 0.30
     Davidson diagonalization with overlap
     ethr =  8.15E-05,  avg # of iterations =  1.3

     negative rho (up, down):  3.570E-02 0.000E+00

     total cpu time spent up to now is    15891.1 secs

     total energy              =    -447.75650511 Ry
     Harris-Foulkes estimate   =    -447.75664490 Ry
     estimated scf accuracy    <       0.01018677 Ry

     iteration # 24     ecut=    30.00 Ry     beta= 0.30
     Davidson diagonalization with overlap
     c_bands:  2 eigenvalues not converged
     c_bands:  3 eigenvalues not converged
     c_bands:  2 eigenvalues not converged
     c_bands:  2 eigenvalues not converged
     c_bands:  1 eigenvalues not converged
     c_bands:  1 eigenvalues not converged
     c_bands:  2 eigenvalues not converged
     c_bands:  1 eigenvalues not converged
     c_bands:  1 eigenvalues not converged
     c_bands:  2 eigenvalues not converged
     c_bands:  2 eigenvalues not converged
     c_bands:  1 eigenvalues not converged
     c_bands:  1 eigenvalues not converged
     ethr =  9.35E-06,  avg # of iterations =  8.6

     negative rho (up, down):  3.553E-02 0.000E+00

     total cpu time spent up to now is    16669.5 secs

     total energy              =    -447.75816975 Ry
     Harris-Foulkes estimate   =    -447.75816206 Ry
     estimated scf accuracy    <       0.01741054 Ry

     iteration # 25     ecut=    30.00 Ry     beta= 0.30
     Davidson diagonalization with overlap
     c_bands:  2 eigenvalues not converged
     ethr =  9.35E-06,  avg # of iterations =  1.5

     negative rho (up, down):  3.459E-02 0.000E+00

     total cpu time spent up to now is    17268.3 secs

     total energy              =    -447.75838925 Ry
     Harris-Foulkes estimate   =    -447.75818357 Ry
     estimated scf accuracy    <       0.01811208 Ry

     iteration # 26     ecut=    30.00 Ry     beta= 0.30
     Davidson diagonalization with overlap
     ethr =  9.35E-06,  avg # of iterations =  1.4

     negative rho (up, down):  3.468E-02 0.000E+00

     total cpu time spent up to now is    17862.9 secs

     total energy              =    -447.75828375 Ry
     Harris-Foulkes estimate   =    -447.75847951 Ry
     estimated scf accuracy    <       0.03541649 Ry

     iteration # 27     ecut=    30.00 Ry     beta= 0.30
     Davidson diagonalization with overlap
     ethr =  9.35E-06,  avg # of iterations =  1.0

     negative rho (up, down):  3.494E-02 0.000E+00

     total cpu time spent up to now is    18452.4 secs

     total energy              =    -447.75842004 Ry
     Harris-Foulkes estimate   =    -447.75830762 Ry
     estimated scf accuracy    <       0.03104794 Ry

     iteration # 28     ecut=    30.00 Ry     beta= 0.30
     Davidson diagonalization with overlap
     ethr =  9.35E-06,  avg # of iterations =  1.0

     negative rho (up, down):  3.507E-02 0.000E+00

     total cpu time spent up to now is    19043.3 secs

     total energy              =    -447.75804660 Ry
     Harris-Foulkes estimate   =    -447.75842598 Ry
     estimated scf accuracy    <       0.03539305 Ry

     iteration # 29     ecut=    30.00 Ry     beta= 0.30
     Davidson diagonalization with overlap
     ethr =  9.35E-06,  avg # of iterations =  1.2

     negative rho (up, down):  3.297E-02 0.000E+00

     total cpu time spent up to now is    19635.0 secs

     total energy              =    -447.75788354 Ry
     Harris-Foulkes estimate   =    -447.75810653 Ry
     estimated scf accuracy    <       0.02431417 Ry

     iteration # 30     ecut=    30.00 Ry     beta= 0.30
     Davidson diagonalization with overlap
     ethr =  9.35E-06,  avg # of iterations =  1.0

     negative rho (up, down):  3.189E-02 0.000E+00

     total cpu time spent up to now is    20228.6 secs

     total energy              =    -447.75714107 Ry
     Harris-Foulkes estimate   =    -447.75791779 Ry
     estimated scf accuracy    <       0.01646552 Ry

     iteration # 31     ecut=    30.00 Ry     beta= 0.30
     Davidson diagonalization with overlap
     ethr =  9.35E-06,  avg # of iterations =  1.7

     negative rho (up, down):  3.168E-02 0.000E+00

     total cpu time spent up to now is    20834.5 secs

     total energy              =    -447.75729386 Ry
     Harris-Foulkes estimate   =    -447.75743104 Ry
     estimated scf accuracy    <       0.00359634 Ry

     iteration # 32     ecut=    30.00 Ry     beta= 0.30
     Davidson diagonalization with overlap
     c_bands:  1 eigenvalues not converged
     c_bands:  2 eigenvalues not converged
     c_bands:  2 eigenvalues not converged
     ethr =  3.30E-06,  avg # of iterations =  4.4

     negative rho (up, down):  2.845E-02 0.000E+00

     total cpu time spent up to now is    21516.6 secs

     total energy              =    -447.75686684 Ry
     Harris-Foulkes estimate   =    -447.75745741 Ry
     estimated scf accuracy    <       0.00369646 Ry

     iteration # 33     ecut=    30.00 Ry     beta= 0.30
     Davidson diagonalization with overlap
     c_bands:  3 eigenvalues not converged
     ethr =  3.30E-06,  avg # of iterations =  4.0

     negative rho (up, down):  2.500E-02 0.000E+00

     total cpu time spent up to now is    22186.6 secs

     total energy              =    -447.75695239 Ry
     Harris-Foulkes estimate   =    -447.75725416 Ry
     estimated scf accuracy    <       0.00963150 Ry

     iteration # 34     ecut=    30.00 Ry     beta= 0.30
     Davidson diagonalization with overlap
     ethr =  3.30E-06,  avg # of iterations =  1.2

     negative rho (up, down):  1.894E-02 0.000E+00

     total cpu time spent up to now is    22781.3 secs

     total energy              =    -447.75617091 Ry
     Harris-Foulkes estimate   =    -447.75701648 Ry
     estimated scf accuracy    <       0.00583819 Ry

     iteration # 35     ecut=    30.00 Ry     beta= 0.30
     Davidson diagonalization with overlap
     ethr =  3.30E-06,  avg # of iterations =  2.3

     negative rho (up, down):  1.779E-02 0.000E+00

     total cpu time spent up to now is    23401.8 secs

     total energy              =    -447.75634007 Ry
     Harris-Foulkes estimate   =    -447.75638121 Ry
     estimated scf accuracy    <       0.00377472 Ry

     iteration # 36     ecut=    30.00 Ry     beta= 0.30
     Davidson diagonalization with overlap
     ethr =  3.30E-06,  avg # of iterations =  1.6

     negative rho (up, down):  1.770E-02 0.000E+00

     total cpu time spent up to now is    24007.4 secs

     total energy              =    -447.75621767 Ry
     Harris-Foulkes estimate   =    -447.75642133 Ry
     estimated scf accuracy    <       0.00608362 Ry

     iteration # 37     ecut=    30.00 Ry     beta= 0.30
     Davidson diagonalization with overlap
     ethr =  3.30E-06,  avg # of iterations =  1.0

     negative rho (up, down):  1.775E-02 0.000E+00

     total cpu time spent up to now is    24597.2 secs

     total energy              =    -447.75619710 Ry
     Harris-Foulkes estimate   =    -447.75624992 Ry
     estimated scf accuracy    <       0.00242598 Ry

     iteration # 38     ecut=    30.00 Ry     beta= 0.30
     Davidson diagonalization with overlap
     ethr =  2.23E-06,  avg # of iterations =  1.2

     negative rho (up, down):  1.688E-02 0.000E+00

     total cpu time spent up to now is    25197.7 secs

     total energy              =    -447.75618089 Ry
     Harris-Foulkes estimate   =    -447.75620781 Ry
     estimated scf accuracy    <       0.00149444 Ry

     iteration # 39     ecut=    30.00 Ry     beta= 0.30
     Davidson diagonalization with overlap
     ethr =  1.37E-06,  avg # of iterations =  1.6

     negative rho (up, down):  1.402E-02 0.000E+00

     total cpu time spent up to now is    25805.5 secs

     total energy              =    -447.75614751 Ry
     Harris-Foulkes estimate   =    -447.75618852 Ry
     estimated scf accuracy    <       0.00057952 Ry

     iteration # 40     ecut=    30.00 Ry     beta= 0.30
     Davidson diagonalization with overlap
     ethr =  5.32E-07,  avg # of iterations =  2.2

     negative rho (up, down):  1.260E-02 0.000E+00

     total cpu time spent up to now is    26425.5 secs

     total energy              =    -447.75612823 Ry
     Harris-Foulkes estimate   =    -447.75617206 Ry
     estimated scf accuracy    <       0.00074680 Ry

     iteration # 41     ecut=    30.00 Ry     beta= 0.30
     Davidson diagonalization with overlap
     ethr =  5.32E-07,  avg # of iterations =  1.7

     negative rho (up, down):  7.550E-03 0.000E+00

     total cpu time spent up to now is    27028.3 secs

     total energy              =    -447.75606221 Ry
     Harris-Foulkes estimate   =    -447.75614945 Ry
     estimated scf accuracy    <       0.00068089 Ry

     iteration # 42     ecut=    30.00 Ry     beta= 0.30
     Davidson diagonalization with overlap
     c_bands:  2 eigenvalues not converged
     ethr =  5.32E-07,  avg # of iterations =  2.1

     negative rho (up, down):  5.829E-03 0.000E+00

     total cpu time spent up to now is    27639.0 secs

     total energy              =    -447.75606975 Ry
     Harris-Foulkes estimate   =    -447.75608671 Ry
     estimated scf accuracy    <       0.00100296 Ry

     iteration # 43     ecut=    30.00 Ry     beta= 0.30
     Davidson diagonalization with overlap
     c_bands:  1 eigenvalues not converged
     ethr =  5.32E-07,  avg # of iterations =  1.2

     negative rho (up, down):  4.580E-03 0.000E+00

     total cpu time spent up to now is    28236.8 secs

     total energy              =    -447.75605342 Ry
     Harris-Foulkes estimate   =    -447.75607116 Ry
     estimated scf accuracy    <       0.00062890 Ry

     iteration # 44     ecut=    30.00 Ry     beta= 0.30
     Davidson diagonalization with overlap
     ethr =  5.32E-07,  avg # of iterations =  1.0

     negative rho (up, down):  2.900E-03 0.000E+00

     total cpu time spent up to now is    28828.5 secs

     total energy              =    -447.75604925 Ry
     Harris-Foulkes estimate   =    -447.75605662 Ry
     estimated scf accuracy    <       0.00007462 Ry

     iteration # 45     ecut=    30.00 Ry     beta= 0.30
     Davidson diagonalization with overlap
     ethr =  6.85E-08,  avg # of iterations =  3.1

     negative rho (up, down):  3.554E-03 0.000E+00

     total cpu time spent up to now is    29480.9 secs

     total energy              =    -447.75605684 Ry
     Harris-Foulkes estimate   =    -447.75605496 Ry
     estimated scf accuracy    <       0.00013115 Ry

     iteration # 46     ecut=    30.00 Ry     beta= 0.30
     Davidson diagonalization with overlap
     ethr =  6.85E-08,  avg # of iterations =  1.0

     negative rho (up, down):  1.485E-03 0.000E+00

     total cpu time spent up to now is    30078.1 secs

     total energy              =    -447.75604834 Ry
     Harris-Foulkes estimate   =    -447.75605699 Ry
     estimated scf accuracy    <       0.00011124 Ry

     iteration # 47     ecut=    30.00 Ry     beta= 0.30
     Davidson diagonalization with overlap
     ethr =  6.85E-08,  avg # of iterations =  1.0

     negative rho (up, down):  1.540E-03 0.000E+00

     total cpu time spent up to now is    30676.8 secs

     total energy              =    -447.75604862 Ry
     Harris-Foulkes estimate   =    -447.75604936 Ry
     estimated scf accuracy    <       0.00029229 Ry

     iteration # 48     ecut=    30.00 Ry     beta= 0.30
     Davidson diagonalization with overlap
     ethr =  6.85E-08,  avg # of iterations =  1.0

     negative rho (up, down):  1.509E-03 0.000E+00

     total cpu time spent up to now is    31268.3 secs

     total energy              =    -447.75604874 Ry
     Harris-Foulkes estimate   =    -447.75604879 Ry
     estimated scf accuracy    <       0.00022113 Ry

     iteration # 49     ecut=    30.00 Ry     beta= 0.30
     Davidson diagonalization with overlap
     ethr =  6.85E-08,  avg # of iterations =  1.0

     negative rho (up, down):  1.464E-03 0.000E+00

     total cpu time spent up to now is    31866.8 secs

     total energy              =    -447.75604939 Ry
     Harris-Foulkes estimate   =    -447.75604882 Ry
     estimated scf accuracy    <       0.00021162 Ry

     iteration # 50     ecut=    30.00 Ry     beta= 0.30
     Davidson diagonalization with overlap
     ethr =  6.85E-08,  avg # of iterations =  1.0

     negative rho (up, down):  1.529E-03 0.000E+00

     total cpu time spent up to now is    32459.1 secs

     total energy              =    -447.75604834 Ry
     Harris-Foulkes estimate   =    -447.75604944 Ry
     estimated scf accuracy    <       0.00024548 Ry

     iteration # 51     ecut=    30.00 Ry     beta= 0.30
     Davidson diagonalization with overlap
     ethr =  6.85E-08,  avg # of iterations =  1.0

     negative rho (up, down):  1.521E-03 0.000E+00

     total cpu time spent up to now is    33055.5 secs

     total energy              =    -447.75604804 Ry
     Harris-Foulkes estimate   =    -447.75604844 Ry
     estimated scf accuracy    <       0.00017763 Ry

     iteration # 52     ecut=    30.00 Ry     beta= 0.30
     Davidson diagonalization with overlap
     ethr =  6.85E-08,  avg # of iterations =  1.0

     negative rho (up, down):  1.489E-03 0.000E+00

     total cpu time spent up to now is    33650.7 secs

     total energy              =    -447.75604881 Ry
     Harris-Foulkes estimate   =    -447.75604807 Ry
     estimated scf accuracy    <       0.00016082 Ry

     iteration # 53     ecut=    30.00 Ry     beta= 0.30
     Davidson diagonalization with overlap
     ethr =  6.85E-08,  avg # of iterations =  1.0

     negative rho (up, down):  1.750E-03 0.000E+00

     total cpu time spent up to now is    34243.3 secs

     total energy              =    -447.75604364 Ry
     Harris-Foulkes estimate   =    -447.75604890 Ry
     estimated scf accuracy    <       0.00021730 Ry

     iteration # 54     ecut=    30.00 Ry     beta= 0.30
     Davidson diagonalization with overlap
     ethr =  6.85E-08,  avg # of iterations =  2.4

     negative rho (up, down):  1.010E-04 0.000E+00

     total cpu time spent up to now is    34854.6 secs

     End of self-consistent calculation

     Number of k-points >= 100: set verbosity='high' to print the bands.

     the Fermi energy is    -0.9853 ev

!    total energy              =    -447.75601876 Ry
     Harris-Foulkes estimate   =    -447.75604858 Ry
     estimated scf accuracy    <       0.00002308 Ry

     The total energy is the sum of the following terms:

     one-electron contribution =   -9768.87345140 Ry
     hartree contribution      =    4902.31466267 Ry
     xc contribution           =    -356.05255037 Ry
     ewald contribution        =    4774.85339008 Ry
     smearing contrib. (-TS)   =       0.00193027 Ry

     convergence has been achieved in  54 iterations

     negative rho (up, down):  1.010E-04 0.000E+00

     Forces acting on atoms (cartesian axes, Ry/au):

     atom    1 type  1   force =    -0.00003789   -0.00002187    0.00021639
     atom    2 type  1   force =    -0.00007578   -0.00004375    0.00021838
     atom    3 type  1   force =     0.00003909    0.00006620    0.00021607
     atom    4 type  1   force =     0.00007688    0.00000075    0.00021607
     atom    5 type  1   force =    -0.00000648   -0.00000374    0.00414519
     atom    6 type  1   force =     0.00000672    0.00000388    0.00413666
     atom    7 type  1   force =     0.00000812   -0.00001052    0.00414487
     atom    8 type  1   force =    -0.00000506    0.00001229    0.00414487
     atom    9 type  1   force =    -0.00001110   -0.00006372    0.00005003
     atom   10 type  1   force =    -0.00006074    0.00002225    0.00005003
     atom   11 type  1   force =     0.00001247    0.00000720    0.00005308
     atom   12 type  1   force =     0.00006202    0.00003581    0.00004527
     atom   13 type  1   force =     0.00000003    0.00000002   -0.00000056
     atom   14 type  1   force =     0.00000160    0.00000092   -0.00000858
     atom   15 type  1   force =     0.00000173   -0.00000103   -0.00000540
     atom   16 type  1   force =    -0.00000003    0.00000201   -0.00000540
     atom   17 type  1   force =    -0.00003916   -0.00002261    0.00002368
     atom   18 type  1   force =     0.00001753    0.00001012    0.00003389
     atom   19 type  1   force =     0.00004045   -0.00004186    0.00002831
     atom   20 type  1   force =    -0.00001602    0.00005596    0.00002831
     atom   21 type  1   force =    -0.00001487    0.00000044   -0.00002851
     atom   22 type  1   force =    -0.00000705   -0.00001310   -0.00002851
     atom   23 type  1   force =     0.00001641    0.00000947   -0.00000939
     atom   24 type  1   force =     0.00000884    0.00000510   -0.00000759
     atom   25 type  1   force =     0.00005651    0.00003263   -0.00006390
     atom   26 type  1   force =    -0.00003347   -0.00001932   -0.00028251
     atom   27 type  1   force =     0.00001373    0.00003761   -0.00021701
     atom   28 type  1   force =     0.00003944   -0.00000691   -0.00021701
     atom   29 type  1   force =     0.00013674    0.00007895   -0.00004499
     atom   30 type  1   force =     0.00004533    0.00002617   -0.00011081
     atom   31 type  1   force =    -0.00013556    0.00002831   -0.00008993
     atom   32 type  1   force =    -0.00004326   -0.00013156   -0.00008993
     atom   33 type  1   force =    -0.07615112    0.13190716   -0.00390104
     atom   34 type  1   force =     0.07615939   -0.13190238   -0.00390104
     atom   35 type  1   force =     0.02001353    0.01155481   -0.00330021
     atom   36 type  1   force =    -0.02005413   -0.01157826   -0.00332989
     atom   37 type  2   force =    -0.00006481   -0.00003742   -0.00210887

     Total force =     0.218159     Total SCF correction =     0.005245


     Computing stress (Cartesian axis) and pressure


     negative rho (up, down):  1.010E-04 0.000E+00
          total   stress  (Ry/bohr**3)                   (kbar)     P=  -22.99
  -0.00020306  -0.00001956  -0.00000004        -29.87     -2.88     -0.01
  -0.00001956  -0.00018048  -0.00000002         -2.88    -26.55     -0.00
  -0.00000004  -0.00000002  -0.00008532         -0.01     -0.00    -12.55


     BFGS Geometry Optimization

     number of scf cycles    =   1
     number of bfgs steps    =   0

     energy   new            =    -447.7560187642 Ry

     new trust radius        =       0.1523604608 bohr
     new conv_thr            =       0.0000360000 Ry


ATOMIC_POSITIONS (crystal)
Al       0.333328794   0.166664144   0.055556867
Al       0.333324094   0.666661809   0.055556880
Al       0.833340683   0.166673603   0.055556865
Al       0.833340683   0.666666589   0.055556865
Al      -0.000000803  -0.000000402   0.000026232
Al       0.000000834   0.500000417   0.000026178
Al       0.500000190  -0.000001130   0.000026230
Al       0.500000190   0.500001320   0.000026230
Al       0.166662039   0.333326648   0.111111481
Al       0.166662039   0.833335881   0.111111481
Al       0.666668054   0.333334265   0.111111500
Al       0.666674199   0.833337338   0.111111451
Al       0.333333496   0.166666495   0.222222161
Al       0.333333690   0.666666607   0.222222110
Al       0.833333597   0.166666382   0.222222130
Al       0.833333597   0.666666724   0.222222130
Al      -0.000004857  -0.000002428   0.166666816
Al       0.000002173   0.500001087   0.166666881
Al       0.500001515  -0.000004495   0.166666846
Al       0.500001515   0.500006010   0.166666846
Al       0.166665133   0.333333539   0.277777650
Al       0.166665133   0.833332085   0.277777650
Al       0.666668542   0.333334509   0.277777771
Al       0.666667604   0.833334040   0.277777783
Al       0.333340500   0.166669997   0.388888427
Al       0.333329341   0.666664433   0.388887043
Al       0.833336789   0.166670532   0.388887458
Al       0.833336789   0.666665766   0.388887458
Al       0.000016956   0.000008478   0.333333049
Al       0.000005621   0.500002811   0.333332632
Al       0.499988912   0.000003041   0.333332764
Al       0.499988912   0.499985872   0.333332764
Al       0.166667006   0.347499533   0.444419811
Al       0.166667006   0.819167964   0.444419811
Al       0.669148344   0.334574410   0.444423613
Al       0.664179636   0.832090056   0.444423425
H        0.166658563   0.083329281   0.444431152



     Writing output data file Al_H21_et1_3_3.save/
     NEW-OLD atomic charge density approx. for the potential

     negative rho (up, down):  1.083E-04 0.000E+00

     total cpu time spent up to now is    35404.5 secs

     Self-consistent Calculation

     iteration #  1     ecut=    30.00 Ry     beta= 0.30
     Davidson diagonalization with overlap
     c_bands:  2 eigenvalues not converged
     c_bands:  2 eigenvalues not converged
     c_bands:  2 eigenvalues not converged
     c_bands:  1 eigenvalues not converged
     c_bands:  1 eigenvalues not converged
     c_bands:  1 eigenvalues not converged
     c_bands:  1 eigenvalues not converged
     c_bands:  1 eigenvalues not converged
     c_bands:  1 eigenvalues not converged
     c_bands:  2 eigenvalues not converged
     c_bands:  2 eigenvalues not converged
     c_bands:  1 eigenvalues not converged
     c_bands:  1 eigenvalues not converged
     c_bands:  1 eigenvalues not converged
     c_bands:  1 eigenvalues not converged
     c_bands:  1 eigenvalues not converged
     c_bands:  1 eigenvalues not converged
     c_bands:  1 eigenvalues not converged
     c_bands:  1 eigenvalues not converged
     c_bands:  1 eigenvalues not converged
     c_bands:  1 eigenvalues not converged
     ethr =  1.00E-06,  avg # of iterations = 10.9

     negative rho (up, down):  1.170E-04 0.000E+00

     total cpu time spent up to now is    36811.8 secs

     total energy              =    -447.79556690 Ry
     Harris-Foulkes estimate   =    -447.79864631 Ry
     estimated scf accuracy    <       0.60144770 Ry

     iteration #  2     ecut=    30.00 Ry     beta= 0.30
     Davidson diagonalization with overlap
     ethr =  5.52E-04,  avg # of iterations =  1.0

     negative rho (up, down):  2.097E-04 0.000E+00

     total cpu time spent up to now is    37414.9 secs

     total energy              =    -447.79150894 Ry
     Harris-Foulkes estimate   =    -447.79596467 Ry
     estimated scf accuracy    <       0.27550669 Ry

     iteration #  3     ecut=    30.00 Ry     beta= 0.30
     Davidson diagonalization with overlap
     ethr =  2.53E-04,  avg # of iterations =  1.0

     negative rho (up, down):  2.310E-04 0.000E+00

     total cpu time spent up to now is    38030.9 secs

     total energy              =    -447.79337463 Ry
     Harris-Foulkes estimate   =    -447.79340495 Ry
     estimated scf accuracy    <       0.00016885 Ry

     iteration #  4     ecut=    30.00 Ry     beta= 0.30
     Davidson diagonalization with overlap
     c_bands:  2 eigenvalues not converged
     c_bands:  2 eigenvalues not converged
     c_bands:  1 eigenvalues not converged
     c_bands:  1 eigenvalues not converged
     c_bands:  1 eigenvalues not converged
     c_bands:  1 eigenvalues not converged
     c_bands:  1 eigenvalues not converged
     c_bands:  1 eigenvalues not converged
     c_bands:  1 eigenvalues not converged
     c_bands:  1 eigenvalues not converged
     ethr =  1.55E-07,  avg # of iterations = 11.3

     negative rho (up, down):  2.266E-04 0.000E+00

     total cpu time spent up to now is    39077.3 secs

     total energy              =    -447.79448635 Ry
     Harris-Foulkes estimate   =    -447.79464113 Ry
     estimated scf accuracy    <       0.11951164 Ry

     iteration #  5     ecut=    30.00 Ry     beta= 0.30
     Davidson diagonalization with overlap
     c_bands:  1 eigenvalues not converged
     c_bands:  1 eigenvalues not converged
     ethr =  1.55E-07,  avg # of iterations =  3.3

     negative rho (up, down):  2.316E-04 0.000E+00

     total cpu time spent up to now is    39732.5 secs

     total energy              =    -447.79440245 Ry
     Harris-Foulkes estimate   =    -447.79450058 Ry
     estimated scf accuracy    <       0.08064094 Ry

     iteration #  6     ecut=    30.00 Ry     beta= 0.30
     Davidson diagonalization with overlap
     ethr =  1.55E-07,  avg # of iterations =  2.5

     negative rho (up, down):  2.209E-04 0.000E+00

     total cpu time spent up to now is    40396.2 secs

     total energy              =    -447.79436475 Ry
     Harris-Foulkes estimate   =    -447.79441027 Ry
     estimated scf accuracy    <       0.06378555 Ry

     iteration #  7     ecut=    30.00 Ry     beta= 0.30
     Davidson diagonalization with overlap
     ethr =  1.55E-07,  avg # of iterations =  2.1

     negative rho (up, down):  2.099E-04 0.000E+00

     total cpu time spent up to now is    41021.6 secs

     total energy              =    -447.79426999 Ry
     Harris-Foulkes estimate   =    -447.79436930 Ry
     estimated scf accuracy    <       0.05252238 Ry

     iteration #  8     ecut=    30.00 Ry     beta= 0.30
     Davidson diagonalization with overlap
     ethr =  1.55E-07,  avg # of iterations =  3.7

     negative rho (up, down):  2.063E-04 0.000E+00

     total cpu time spent up to now is    41682.7 secs

     total energy              =    -447.79426105 Ry
     Harris-Foulkes estimate   =    -447.79428910 Ry
     estimated scf accuracy    <       0.02579956 Ry

     iteration #  9     ecut=    30.00 Ry     beta= 0.30
     Davidson diagonalization with overlap
     c_bands:  1 eigenvalues not converged
     ethr =  1.55E-07,  avg # of iterations =  1.2

     negative rho (up, down):  1.873E-04 0.000E+00

     total cpu time spent up to now is    42292.2 secs

     total energy              =    -447.79417654 Ry
     Harris-Foulkes estimate   =    -447.79426238 Ry
     estimated scf accuracy    <       0.02118317 Ry

     iteration # 10     ecut=    30.00 Ry     beta= 0.30
     Davidson diagonalization with overlap
     c_bands:  1 eigenvalues not converged
     ethr =  1.55E-07,  avg # of iterations =  4.6

     negative rho (up, down):  1.617E-04 0.000E+00

     total cpu time spent up to now is    42966.9 secs

     total energy              =    -447.79418778 Ry
     Harris-Foulkes estimate   =    -447.79420865 Ry
     estimated scf accuracy    <       0.00225364 Ry

     iteration # 11     ecut=    30.00 Ry     beta= 0.30
     Davidson diagonalization with overlap
     ethr =  1.55E-07,  avg # of iterations =  3.5

     negative rho (up, down):  1.534E-04 0.000E+00

     total cpu time spent up to now is    43613.0 secs

     total energy              =    -447.79420113 Ry
     Harris-Foulkes estimate   =    -447.79419998 Ry
     estimated scf accuracy    <       0.00011883 Ry

     iteration # 12     ecut=    30.00 Ry     beta= 0.30
     Davidson diagonalization with overlap
     ethr =  1.09E-07,  avg # of iterations =  1.2

     negative rho (up, down):  1.543E-04 0.000E+00

     total cpu time spent up to now is    44230.5 secs

     total energy              =    -447.79419917 Ry
     Harris-Foulkes estimate   =    -447.79420285 Ry
     estimated scf accuracy    <       0.00063822 Ry

     iteration # 13     ecut=    30.00 Ry     beta= 0.30
     Davidson diagonalization with overlap
     ethr =  1.09E-07,  avg # of iterations =  1.0

     negative rho (up, down):  1.456E-04 0.000E+00

     total cpu time spent up to now is    44829.1 secs

     total energy              =    -447.79419888 Ry
     Harris-Foulkes estimate   =    -447.79420008 Ry
     estimated scf accuracy    <       0.00015937 Ry

     iteration # 14     ecut=    30.00 Ry     beta= 0.30
     Davidson diagonalization with overlap
     ethr =  1.09E-07,  avg # of iterations =  1.0

     negative rho (up, down):  1.286E-04 0.000E+00

     total cpu time spent up to now is    45423.5 secs

     total energy              =    -447.79419887 Ry
     Harris-Foulkes estimate   =    -447.79419927 Ry
     estimated scf accuracy    <       0.00004270 Ry

     iteration # 15     ecut=    30.00 Ry     beta= 0.30
     Davidson diagonalization with overlap
     ethr =  3.92E-08,  avg # of iterations =  1.6

     negative rho (up, down):  9.288E-05 0.000E+00

     total cpu time spent up to now is    46013.8 secs

     End of self-consistent calculation

     Number of k-points >= 100: set verbosity='high' to print the bands.

     the Fermi energy is    -0.9966 ev

!    total energy              =    -447.79419684 Ry
     Harris-Foulkes estimate   =    -447.79419944 Ry
     estimated scf accuracy    <       0.00000271 Ry

     The total energy is the sum of the following terms:

     one-electron contribution =   -9769.82556874 Ry
     hartree contribution      =    4902.79287518 Ry
     xc contribution           =    -356.02392047 Ry
     ewald contribution        =    4775.26049074 Ry
     smearing contrib. (-TS)   =       0.00192646 Ry

     convergence has been achieved in  15 iterations

     negative rho (up, down):  9.288E-05 0.000E+00

     Forces acting on atoms (cartesian axes, Ry/au):

     atom    1 type  1   force =    -0.00003463   -0.00001999    0.00021063
     atom    2 type  1   force =    -0.00006379   -0.00003683    0.00021466
     atom    3 type  1   force =     0.00003371    0.00005222    0.00021165
     atom    4 type  1   force =     0.00006208    0.00000308    0.00021165
     atom    5 type  1   force =     0.00002648    0.00001529    0.00416540
     atom    6 type  1   force =    -0.00003538   -0.00002043    0.00415059
     atom    7 type  1   force =    -0.00002783    0.00005618    0.00415997
     atom    8 type  1   force =     0.00003473   -0.00005219    0.00415997
     atom    9 type  1   force =     0.00000078   -0.00008161    0.00004008
     atom   10 type  1   force =    -0.00007029    0.00004148    0.00004008
     atom   11 type  1   force =    -0.00000264   -0.00000153    0.00004498
     atom   12 type  1   force =     0.00006777    0.00003913    0.00003822
     atom   13 type  1   force =     0.00000596    0.00000344   -0.00001369
     atom   14 type  1   force =     0.00000329    0.00000190    0.00000607
     atom   15 type  1   force =    -0.00000687   -0.00000080   -0.00000382
     atom   16 type  1   force =    -0.00000413   -0.00000555   -0.00000382
     atom   17 type  1   force =    -0.00000821   -0.00000474    0.00002035
     atom   18 type  1   force =    -0.00000834   -0.00000481    0.00002949
     atom   19 type  1   force =     0.00000658    0.00000373    0.00002569
     atom   20 type  1   force =     0.00000652    0.00000383    0.00002569
     atom   21 type  1   force =     0.00003720   -0.00008736   -0.00002135
     atom   22 type  1   force =    -0.00005706    0.00007589   -0.00002135
     atom   23 type  1   force =    -0.00003840   -0.00002217   -0.00000409
     atom   24 type  1   force =     0.00005632    0.00003251   -0.00000440
     atom   25 type  1   force =    -0.00017620   -0.00010173   -0.00017074
     atom   26 type  1   force =     0.00011050    0.00006380   -0.00021539
     atom   27 type  1   force =     0.00024801   -0.00027418   -0.00023189
     atom   28 type  1   force =    -0.00011344    0.00035187   -0.00023189
     atom   29 type  1   force =     0.00006997    0.00004040   -0.00009315
     atom   30 type  1   force =     0.00006369    0.00003677   -0.00005016
     atom   31 type  1   force =    -0.00007204   -0.00003339   -0.00007965
     atom   32 type  1   force =    -0.00006494   -0.00004569   -0.00007965
     atom   33 type  1   force =    -0.04621284    0.08012101   -0.00428545
     atom   34 type  1   force =     0.04628041   -0.08008200   -0.00428545
     atom   35 type  1   force =     0.01494185    0.00862668   -0.00337963
     atom   36 type  1   force =    -0.01498558   -0.00865193   -0.00340066
     atom   37 type  2   force =    -0.00007328   -0.00004231   -0.00117894

     Total force =     0.133560     Total SCF correction =     0.001916


     Computing stress (Cartesian axis) and pressure


     negative rho (up, down):  9.288E-05 0.000E+00
          total   stress  (Ry/bohr**3)                   (kbar)     P=  -23.63
  -0.00020597  -0.00001352  -0.00000004        -30.30     -1.99     -0.01
  -0.00001352  -0.00019036  -0.00000002         -1.99    -28.00     -0.00
  -0.00000004  -0.00000002  -0.00008546         -0.01     -0.00    -12.57


     number of scf cycles    =   2
     number of bfgs steps    =   1

     energy   old            =    -447.7560187642 Ry
     energy   new            =    -447.7941968371 Ry

     CASE: energy  _new < energy  _old

     new trust radius        =       0.1675965069 bohr
     new conv_thr            =       0.0000288436 Ry


ATOMIC_POSITIONS (crystal)
Al       0.333321031   0.166660263   0.055559276
Al       0.333309792   0.666654658   0.055559335
Al       0.833351423   0.166683745   0.055559286
Al       0.833351423   0.666667187   0.055559286
Al       0.000005115   0.000002558   0.000073873
Al      -0.000007075   0.499996463   0.000073650
Al       0.500000962   0.000009744   0.000073809
Al       0.500000962   0.499991218   0.000073809
Al       0.166654249   0.333310816   0.111111939
Al       0.166654249   0.833343925   0.111111939
Al       0.666667470   0.333333973   0.111112015
Al       0.666689385   0.833344931   0.111111888
Al       0.333334828   0.166667161   0.222222005
Al       0.333334426   0.666666975   0.222222179
Al       0.833332368   0.166666226   0.222222086
Al       0.833332368   0.666665651   0.222222086
Al      -0.000006713  -0.000003357   0.166667049
Al       0.000000318   0.500000159   0.166667219
Al       0.500002986  -0.000003791   0.166667140
Al       0.500002986   0.500006777   0.166667140
Al       0.166662907   0.333316622   0.277777406
Al       0.166662907   0.833346776   0.277777406
Al       0.666659965   0.333330220   0.277777724
Al       0.666680201   0.833340339   0.277777732
Al       0.333301128   0.166650311   0.388886477
Al       0.333354034   0.666676779   0.388884578
Al       0.833351849   0.166617453   0.388884806
Al       0.833351849   0.666733905   0.388884806
Al       0.000032674   0.000016337   0.333331985
Al       0.000019886   0.500009943   0.333332057
Al       0.499973551  -0.000003414   0.333331853
Al       0.499973551   0.499976965   0.333331853
Al       0.166674564   0.363074135   0.444370806
Al       0.166674564   0.803600920   0.444370806
Al       0.672499843   0.336250159   0.444384960
Al       0.660818338   0.830409407   0.444384532
H        0.166642142   0.083321071   0.444417643



     Writing output data file Al_H21_et1_3_3.save/
     NEW-OLD atomic charge density approx. for the potential

     negative rho (up, down):  1.009E-04 0.000E+00

     total cpu time spent up to now is    46564.1 secs

     Self-consistent Calculation

     iteration #  1     ecut=    30.00 Ry     beta= 0.30
     Davidson diagonalization with overlap
     c_bands:  1 eigenvalues not converged
     c_bands:  2 eigenvalues not converged
     c_bands:  1 eigenvalues not converged
     c_bands:  1 eigenvalues not converged
     c_bands:  1 eigenvalues not converged
     c_bands:  1 eigenvalues not converged
     c_bands:  1 eigenvalues not converged
     c_bands:  1 eigenvalues not converged
     c_bands:  1 eigenvalues not converged
     c_bands:  1 eigenvalues not converged
     c_bands:  5 eigenvalues not converged
     c_bands:  1 eigenvalues not converged
     c_bands:  1 eigenvalues not converged
     c_bands:  1 eigenvalues not converged
     c_bands:  1 eigenvalues not converged
     c_bands:  1 eigenvalues not converged
     c_bands:  2 eigenvalues not converged
     c_bands:  1 eigenvalues not converged
     c_bands:  1 eigenvalues not converged
     c_bands:  1 eigenvalues not converged
     c_bands:  1 eigenvalues not converged
     c_bands:  2 eigenvalues not converged
     c_bands:  2 eigenvalues not converged
     c_bands:  1 eigenvalues not converged
     ethr =  1.00E-06,  avg # of iterations = 12.0

     negative rho (up, down):  8.682E-05 0.000E+00

     total cpu time spent up to now is    47978.3 secs

     total energy              =    -447.81694638 Ry
     Harris-Foulkes estimate   =    -447.81887633 Ry
     estimated scf accuracy    <       0.31424520 Ry

     iteration #  2     ecut=    30.00 Ry     beta= 0.30
     Davidson diagonalization with overlap
     ethr =  2.88E-04,  avg # of iterations =  1.0

     negative rho (up, down):  1.164E-04 0.000E+00

     total cpu time spent up to now is    48586.4 secs

     total energy              =    -447.81422575 Ry
     Harris-Foulkes estimate   =    -447.81715365 Ry
     estimated scf accuracy    <       0.14814287 Ry

     iteration #  3     ecut=    30.00 Ry     beta= 0.30
     Davidson diagonalization with overlap
     ethr =  1.36E-04,  avg # of iterations =  1.0

     negative rho (up, down):  1.196E-04 0.000E+00

     total cpu time spent up to now is    49196.1 secs

     total energy              =    -447.81535688 Ry
     Harris-Foulkes estimate   =    -447.81537677 Ry
     estimated scf accuracy    <       0.00015734 Ry

     iteration #  4     ecut=    30.00 Ry     beta= 0.30
     Davidson diagonalization with overlap
     c_bands:  1 eigenvalues not converged
     c_bands:  1 eigenvalues not converged
     c_bands:  2 eigenvalues not converged
     c_bands:  1 eigenvalues not converged
     ethr =  1.44E-07,  avg # of iterations = 10.3

     negative rho (up, down):  1.163E-04 0.000E+00

     total cpu time spent up to now is    50195.7 secs

     total energy              =    -447.81588504 Ry
     Harris-Foulkes estimate   =    -447.81592900 Ry
     estimated scf accuracy    <       0.07979017 Ry

     iteration #  5     ecut=    30.00 Ry     beta= 0.30
     Davidson diagonalization with overlap
     c_bands:  1 eigenvalues not converged
     ethr =  1.44E-07,  avg # of iterations =  1.5

     negative rho (up, down):  1.159E-04 0.000E+00

     total cpu time spent up to now is    50820.7 secs

     total energy              =    -447.81574260 Ry
     Harris-Foulkes estimate   =    -447.81588735 Ry
     estimated scf accuracy    <       0.06729209 Ry

     iteration #  6     ecut=    30.00 Ry     beta= 0.30
     Davidson diagonalization with overlap
     c_bands:  1 eigenvalues not converged
     c_bands:  1 eigenvalues not converged
     c_bands:  1 eigenvalues not converged
     c_bands:  1 eigenvalues not converged
     c_bands:  2 eigenvalues not converged
     c_bands:  1 eigenvalues not converged
     ethr =  1.44E-07,  avg # of iterations =  4.9

     negative rho (up, down):  1.122E-04 0.000E+00

     total cpu time spent up to now is    51532.9 secs

     total energy              =    -447.81577102 Ry
     Harris-Foulkes estimate   =    -447.81578476 Ry
     estimated scf accuracy    <       0.01893708 Ry

     iteration #  7     ecut=    30.00 Ry     beta= 0.30
     Davidson diagonalization with overlap
     ethr =  1.44E-07,  avg # of iterations =  1.0

     negative rho (up, down):  8.404E-05 0.000E+00

     total cpu time spent up to now is    52143.1 secs

     total energy              =    -447.81569027 Ry
     Harris-Foulkes estimate   =    -447.81577188 Ry
     estimated scf accuracy    <       0.01593740 Ry

     iteration #  8     ecut=    30.00 Ry     beta= 0.30
     Davidson diagonalization with overlap
     ethr =  1.44E-07,  avg # of iterations =  4.5

     negative rho (up, down):  8.688E-05 0.000E+00

     total cpu time spent up to now is    52822.8 secs

     total energy              =    -447.81573966 Ry
     Harris-Foulkes estimate   =    -447.81574057 Ry
     estimated scf accuracy    <       0.00021851 Ry

     iteration #  9     ecut=    30.00 Ry     beta= 0.30
     Davidson diagonalization with overlap
     ethr =  1.44E-07,  avg # of iterations =  1.0

     negative rho (up, down):  8.538E-05 0.000E+00

     total cpu time spent up to now is    53402.0 secs

     End of self-consistent calculation

     Number of k-points >= 100: set verbosity='high' to print the bands.

     the Fermi energy is    -0.9956 ev

!    total energy              =    -447.81571935 Ry
     Harris-Foulkes estimate   =    -447.81574033 Ry
     estimated scf accuracy    <       0.00002200 Ry

     The total energy is the sum of the following terms:

     one-electron contribution =   -9772.10049359 Ry
     hartree contribution      =    4904.04368957 Ry
     xc contribution           =    -356.01245357 Ry
     ewald contribution        =    4776.25163964 Ry
     smearing contrib. (-TS)   =       0.00189860 Ry

     convergence has been achieved in   9 iterations

     negative rho (up, down):  8.538E-05 0.000E+00

     Forces acting on atoms (cartesian axes, Ry/au):

     atom    1 type  1   force =    -0.00004381   -0.00002529    0.00019171
     atom    2 type  1   force =    -0.00001566   -0.00000904    0.00019623
     atom    3 type  1   force =     0.00004575   -0.00000588    0.00019495
     atom    4 type  1   force =     0.00001779    0.00004256    0.00019495
     atom    5 type  1   force =    -0.00000371   -0.00000214    0.00420164
     atom    6 type  1   force =     0.00000254    0.00000147    0.00416887
     atom    7 type  1   force =     0.00000648   -0.00000354    0.00418588
     atom    8 type  1   force =     0.00000018    0.00000738    0.00418588
     atom    9 type  1   force =    -0.00003132   -0.00000849    0.00004341
     atom   10 type  1   force =    -0.00002301   -0.00002288    0.00004341
     atom   11 type  1   force =     0.00003226    0.00001863    0.00004348
     atom   12 type  1   force =     0.00002403    0.00001388    0.00004274
     atom   13 type  1   force =     0.00002038    0.00001177   -0.00003213
     atom   14 type  1   force =     0.00001440    0.00000832    0.00002009
     atom   15 type  1   force =    -0.00001827   -0.00000343   -0.00000680
     atom   16 type  1   force =    -0.00001210   -0.00001411   -0.00000680
     atom   17 type  1   force =    -0.00001127   -0.00000651    0.00001657
     atom   18 type  1   force =    -0.00000714   -0.00000412    0.00003345
     atom   19 type  1   force =     0.00001243    0.00000214    0.00002468
     atom   20 type  1   force =     0.00000807    0.00000970    0.00002468
     atom   21 type  1   force =     0.00004109   -0.00007100   -0.00002285
     atom   22 type  1   force =    -0.00004095    0.00007109   -0.00002285
     atom   23 type  1   force =    -0.00003877   -0.00002239    0.00000465
     atom   24 type  1   force =     0.00004308    0.00002487    0.00000427
     atom   25 type  1   force =    -0.00025973   -0.00014996   -0.00043239
     atom   26 type  1   force =     0.00039113    0.00022582   -0.00029792
     atom   27 type  1   force =     0.00033198   -0.00064050   -0.00032513
     atom   28 type  1   force =    -0.00038870    0.00060775   -0.00032513
     atom   29 type  1   force =    -0.00004469   -0.00002580   -0.00014921
     atom   30 type  1   force =     0.00017382    0.00010035    0.00000609
     atom   31 type  1   force =     0.00004612   -0.00022646   -0.00009697
     atom   32 type  1   force =    -0.00017306    0.00015317   -0.00009697
     atom   33 type  1   force =    -0.01446234    0.02505376   -0.00430971
     atom   34 type  1   force =     0.01446602   -0.02505163   -0.00430971
     atom   35 type  1   force =     0.00822304    0.00474757   -0.00360278
     atom   36 type  1   force =    -0.00824973   -0.00476298   -0.00361744
     atom   37 type  2   force =    -0.00007635   -0.00004408   -0.00017283

     Total force =     0.044611     Total SCF correction =     0.005368
     SCF correction compared to forces is large: reduce conv_thr to get better values


     Computing stress (Cartesian axis) and pressure


     negative rho (up, down):  8.538E-05 0.000E+00
          total   stress  (Ry/bohr**3)                   (kbar)     P=  -23.86
  -0.00020635  -0.00000980  -0.00000004        -30.36     -1.44     -0.01
  -0.00000980  -0.00019504  -0.00000002         -1.44    -28.69     -0.00
  -0.00000004  -0.00000002  -0.00008514         -0.01     -0.00    -12.52


     number of scf cycles    =   3
     number of bfgs steps    =   2

     energy   old            =    -447.7941968371 Ry
     energy   new            =    -447.8157193492 Ry

     CASE: energy  _new < energy  _old

     new trust radius        =       0.0806272256 bohr
     new conv_thr            =       0.0000090194 Ry


ATOMIC_POSITIONS (crystal)
Al       0.333311258   0.166655376   0.055561608
Al       0.333303747   0.666651636   0.055561719
Al       0.833359644   0.166685057   0.055561650
Al       0.833359644   0.666674097   0.055561650
Al       0.000005713   0.000002857   0.000123824
Al      -0.000008320   0.499995840   0.000123256
Al       0.500001744   0.000011536   0.000123599
Al       0.500001744   0.499990208   0.000123599
Al       0.166647533   0.333305981   0.111112449
Al       0.166647533   0.833342043   0.111112449
Al       0.666673287   0.333336882   0.111112537
Al       0.666697153   0.833348814   0.111112386
Al       0.333338866   0.166669180   0.222221669
Al       0.333337237   0.666668380   0.222222382
Al       0.833329308   0.166665646   0.222222013
Al       0.833329308   0.666663171   0.222222013
Al      -0.000009220  -0.000004610   0.166667256
Al      -0.000001384   0.499999308   0.166667607
Al       0.500005201  -0.000003325   0.166667436
Al       0.500005201   0.500008526   0.166667436
Al       0.166662429   0.333301636   0.277777137
Al       0.166662429   0.833361283   0.277777137
Al       0.666650982   0.333325729   0.277777758
Al       0.666690869   0.833345673   0.277777761
Al       0.333244842   0.166622168   0.388881992
Al       0.333431317   0.666715420   0.388881235
Al       0.833349924   0.166503916   0.388881169
Al       0.833349924   0.666845517   0.388881169
Al       0.000027973   0.000013987   0.333330351
Al       0.000054993   0.500027496   0.333331985
Al       0.499958471  -0.000040872   0.333330741
Al       0.499958471   0.499999343   0.333330741
Al       0.166676548   0.370536011   0.444319554
Al       0.166676548   0.796141028   0.444319554
Al       0.674755805   0.337378140   0.444342616
Al       0.658555307   0.829277892   0.444341997
H        0.166624481   0.083312241   0.444413004



     Writing output data file Al_H21_et1_3_3.save/
     NEW-OLD atomic charge density approx. for the potential

     negative rho (up, down):  8.841E-05 0.000E+00

     total cpu time spent up to now is    53953.5 secs

     Self-consistent Calculation

     iteration #  1     ecut=    30.00 Ry     beta= 0.30
     Davidson diagonalization with overlap
     c_bands:  1 eigenvalues not converged
     c_bands:  1 eigenvalues not converged
     c_bands:  1 eigenvalues not converged
     c_bands:  1 eigenvalues not converged
     c_bands:  1 eigenvalues not converged
     c_bands:  1 eigenvalues not converged
     c_bands:  2 eigenvalues not converged
     c_bands:  1 eigenvalues not converged
     c_bands:  1 eigenvalues not converged
     c_bands:  1 eigenvalues not converged
     c_bands:  2 eigenvalues not converged
     c_bands:  1 eigenvalues not converged
     c_bands:  2 eigenvalues not converged
     ethr =  1.00E-06,  avg # of iterations = 10.9

     negative rho (up, down):  2.290E-04 0.000E+00

     total cpu time spent up to now is    55292.1 secs

     total energy              =    -447.81970293 Ry
     Harris-Foulkes estimate   =    -447.82572389 Ry
     estimated scf accuracy    <       2.85553826 Ry

     iteration #  2     ecut=    30.00 Ry     beta= 0.30
     Davidson diagonalization with overlap
     ethr =  2.62E-03,  avg # of iterations =  1.0

     negative rho (up, down):  1.086E-03 0.000E+00

     total cpu time spent up to now is    55897.3 secs

     total energy              =    -447.81179049 Ry
     Harris-Foulkes estimate   =    -447.82063285 Ry
     estimated scf accuracy    <       1.33502015 Ry

     iteration #  3     ecut=    30.00 Ry     beta= 0.30
     Davidson diagonalization with overlap
     ethr =  1.22E-03,  avg # of iterations =  1.0

     negative rho (up, down):  1.622E-03 0.000E+00

     total cpu time spent up to now is    56494.3 secs

     total energy              =    -447.81612291 Ry
     Harris-Foulkes estimate   =    -447.81613922 Ry
     estimated scf accuracy    <       0.00088634 Ry

     iteration #  4     ecut=    30.00 Ry     beta= 0.30
     Davidson diagonalization with overlap
     c_bands:  2 eigenvalues not converged
     c_bands:  2 eigenvalues not converged
     c_bands:  1 eigenvalues not converged
     c_bands:  2 eigenvalues not converged
     c_bands:  2 eigenvalues not converged
     c_bands:  2 eigenvalues not converged
     c_bands:  1 eigenvalues not converged
     c_bands:  1 eigenvalues not converged
     c_bands:  2 eigenvalues not converged
     c_bands:  1 eigenvalues not converged
     c_bands:  2 eigenvalues not converged
     c_bands:  2 eigenvalues not converged
     c_bands:  2 eigenvalues not converged
     c_bands:  1 eigenvalues not converged
     c_bands:  2 eigenvalues not converged
     c_bands:  2 eigenvalues not converged
     c_bands:  2 eigenvalues not converged
     c_bands:  1 eigenvalues not converged
     c_bands:  1 eigenvalues not converged
     c_bands:  4 eigenvalues not converged
     c_bands:  1 eigenvalues not converged
     c_bands:  2 eigenvalues not converged
     c_bands:  2 eigenvalues not converged
     c_bands:  2 eigenvalues not converged
     c_bands:  1 eigenvalues not converged
     c_bands:  2 eigenvalues not converged
     c_bands:  1 eigenvalues not converged
     c_bands:  1 eigenvalues not converged
     c_bands:  3 eigenvalues not converged
     c_bands:  2 eigenvalues not converged
     c_bands:  1 eigenvalues not converged
     c_bands:  1 eigenvalues not converged
     c_bands:  1 eigenvalues not converged
     c_bands:  2 eigenvalues not converged
     c_bands:  1 eigenvalues not converged
     c_bands:  3 eigenvalues not converged
     c_bands:  1 eigenvalues not converged
     c_bands:  1 eigenvalues not converged
     c_bands:  1 eigenvalues not converged
     ethr =  8.13E-07,  avg # of iterations = 14.5

     negative rho (up, down):  1.619E-03 0.000E+00

     total cpu time spent up to now is    57477.4 secs

     total energy              =    -447.81939459 Ry
     Harris-Foulkes estimate   =    -447.81938548 Ry
     estimated scf accuracy    <       0.42180033 Ry

     iteration #  5     ecut=    30.00 Ry     beta= 0.30
     Davidson diagonalization with overlap
     c_bands:  1 eigenvalues not converged
     c_bands:  1 eigenvalues not converged
     c_bands:  1 eigenvalues not converged
     c_bands:  2 eigenvalues not converged
     ethr =  8.13E-07,  avg # of iterations =  3.4

     negative rho (up, down):  1.610E-03 0.000E+00

     total cpu time spent up to now is    58111.9 secs

     total energy              =    -447.81942050 Ry
     Harris-Foulkes estimate   =    -447.81940228 Ry
     estimated scf accuracy    <       0.42508144 Ry

     iteration #  6     ecut=    30.00 Ry     beta= 0.30
     Davidson diagonalization with overlap
     ethr =  8.13E-07,  avg # of iterations =  1.1

     negative rho (up, down):  1.826E-03 0.000E+00

     total cpu time spent up to now is    58710.9 secs

     total energy              =    -447.81904133 Ry
     Harris-Foulkes estimate   =    -447.81942115 Ry
     estimated scf accuracy    <       0.43002036 Ry

     iteration #  7     ecut=    30.00 Ry     beta= 0.30
     Davidson diagonalization with overlap
     ethr =  8.13E-07,  avg # of iterations =  2.4

     negative rho (up, down):  1.735E-03 0.000E+00

     total cpu time spent up to now is    59348.4 secs

     total energy              =    -447.81896561 Ry
     Harris-Foulkes estimate   =    -447.81909152 Ry
     estimated scf accuracy    <       0.32453927 Ry

     iteration #  8     ecut=    30.00 Ry     beta= 0.30
     Davidson diagonalization with overlap
     ethr =  8.13E-07,  avg # of iterations =  1.4

     negative rho (up, down):  1.745E-03 0.000E+00

     total cpu time spent up to now is    59967.4 secs

     total energy              =    -447.81858935 Ry
     Harris-Foulkes estimate   =    -447.81898383 Ry
     estimated scf accuracy    <       0.27888345 Ry

     iteration #  9     ecut=    30.00 Ry     beta= 0.30
     Davidson diagonalization with overlap
     ethr =  8.13E-07,  avg # of iterations =  4.1

     negative rho (up, down):  1.706E-03 0.000E+00

     total cpu time spent up to now is    60646.7 secs

     total energy              =    -447.81873080 Ry
     Harris-Foulkes estimate   =    -447.81877954 Ry
     estimated scf accuracy    <       0.10898033 Ry

     iteration # 10     ecut=    30.00 Ry     beta= 0.30
     Davidson diagonalization with overlap
     ethr =  8.13E-07,  avg # of iterations =  1.4

     negative rho (up, down):  1.676E-03 0.000E+00

     total cpu time spent up to now is    61253.1 secs

     total energy              =    -447.81867414 Ry
     Harris-Foulkes estimate   =    -447.81875106 Ry
     estimated scf accuracy    <       0.07583037 Ry

     iteration # 11     ecut=    30.00 Ry     beta= 0.30
     Davidson diagonalization with overlap
     ethr =  8.13E-07,  avg # of iterations =  2.0

     negative rho (up, down):  1.619E-03 0.000E+00

     total cpu time spent up to now is    61874.4 secs

     total energy              =    -447.81872723 Ry
     Harris-Foulkes estimate   =    -447.81868917 Ry
     estimated scf accuracy    <       0.05028649 Ry

     iteration # 12     ecut=    30.00 Ry     beta= 0.30
     Davidson diagonalization with overlap
     c_bands:  3 eigenvalues not converged
     ethr =  8.13E-07,  avg # of iterations =  5.6

     negative rho (up, down):  1.532E-03 0.000E+00

     total cpu time spent up to now is    62569.7 secs

     total energy              =    -447.81870874 Ry
     Harris-Foulkes estimate   =    -447.81888671 Ry
     estimated scf accuracy    <       0.01355070 Ry

     iteration # 13     ecut=    30.00 Ry     beta= 0.30
     Davidson diagonalization with overlap
     ethr =  8.13E-07,  avg # of iterations =  1.3

     negative rho (up, down):  8.484E-04 0.000E+00

     total cpu time spent up to now is    63176.8 secs

     total energy              =    -447.81744990 Ry
     Harris-Foulkes estimate   =    -447.81871727 Ry
     estimated scf accuracy    <       0.01221026 Ry

     iteration # 14     ecut=    30.00 Ry     beta= 0.30
     Davidson diagonalization with overlap
     c_bands:  1 eigenvalues not converged
     c_bands:  1 eigenvalues not converged
     c_bands:  1 eigenvalues not converged
     ethr =  8.13E-07,  avg # of iterations =  6.7

     negative rho (up, down):  9.416E-04 0.000E+00

     total cpu time spent up to now is    64097.4 secs

     total energy              =    -447.81818293 Ry
     Harris-Foulkes estimate   =    -447.81835778 Ry
     estimated scf accuracy    <       0.00387957 Ry

     iteration # 15     ecut=    30.00 Ry     beta= 0.30
     Davidson diagonalization with overlap
     ethr =  8.13E-07,  avg # of iterations =  2.9

     negative rho (up, down):  9.265E-04 0.000E+00

     total cpu time spent up to now is    64749.1 secs

     total energy              =    -447.81824102 Ry
     Harris-Foulkes estimate   =    -447.81826129 Ry
     estimated scf accuracy    <       0.00305791 Ry

     iteration # 16     ecut=    30.00 Ry     beta= 0.30
     Davidson diagonalization with overlap
     ethr =  8.13E-07,  avg # of iterations =  1.0

     negative rho (up, down):  7.488E-04 0.000E+00

     total cpu time spent up to now is    65346.2 secs

     total energy              =    -447.81824909 Ry
     Harris-Foulkes estimate   =    -447.81824984 Ry
     estimated scf accuracy    <       0.00099157 Ry

     iteration # 17     ecut=    30.00 Ry     beta= 0.30
     Davidson diagonalization with overlap
     ethr =  8.13E-07,  avg # of iterations =  4.6

     negative rho (up, down):  8.237E-04 0.000E+00

     total cpu time spent up to now is    66022.7 secs

     total energy              =    -447.81820684 Ry
     Harris-Foulkes estimate   =    -447.81834745 Ry
     estimated scf accuracy    <       0.00454940 Ry

     iteration # 18     ecut=    30.00 Ry     beta= 0.30
     Davidson diagonalization with overlap
     ethr =  8.13E-07,  avg # of iterations =  2.6

     negative rho (up, down):  8.274E-04 0.000E+00

     total cpu time spent up to now is    66663.5 secs

     total energy              =    -447.81825855 Ry
     Harris-Foulkes estimate   =    -447.81826000 Ry
     estimated scf accuracy    <       0.00540086 Ry

     iteration # 19     ecut=    30.00 Ry     beta= 0.30
     Davidson diagonalization with overlap
     ethr =  8.13E-07,  avg # of iterations =  1.0

     negative rho (up, down):  8.568E-04 0.000E+00

     total cpu time spent up to now is    67275.6 secs

     total energy              =    -447.81828185 Ry
     Harris-Foulkes estimate   =    -447.81826031 Ry
     estimated scf accuracy    <       0.00597213 Ry

     iteration # 20     ecut=    30.00 Ry     beta= 0.30
     Davidson diagonalization with overlap
     ethr =  8.13E-07,  avg # of iterations =  1.1

     negative rho (up, down):  6.974E-04 0.000E+00

     total cpu time spent up to now is    67870.8 secs

     total energy              =    -447.81820350 Ry
     Harris-Foulkes estimate   =    -447.81828918 Ry
     estimated scf accuracy    <       0.00848345 Ry

     iteration # 21     ecut=    30.00 Ry     beta= 0.30
     Davidson diagonalization with overlap
     ethr =  8.13E-07,  avg # of iterations =  2.2

     negative rho (up, down):  6.647E-04 0.000E+00

     total cpu time spent up to now is    68501.2 secs

     total energy              =    -447.81824245 Ry
     Harris-Foulkes estimate   =    -447.81824375 Ry
     estimated scf accuracy    <       0.00024182 Ry

     iteration # 22     ecut=    30.00 Ry     beta= 0.30
     Davidson diagonalization with overlap
     ethr =  2.22E-07,  avg # of iterations =  2.4

     negative rho (up, down):  7.406E-04 0.000E+00

     total cpu time spent up to now is    69142.1 secs

     total energy              =    -447.81824642 Ry
     Harris-Foulkes estimate   =    -447.81825406 Ry
     estimated scf accuracy    <       0.00026005 Ry

     iteration # 23     ecut=    30.00 Ry     beta= 0.30
     Davidson diagonalization with overlap
     ethr =  2.22E-07,  avg # of iterations =  1.2

     negative rho (up, down):  7.354E-04 0.000E+00

     total cpu time spent up to now is    69739.9 secs

     total energy              =    -447.81824892 Ry
     Harris-Foulkes estimate   =    -447.81824901 Ry
     estimated scf accuracy    <       0.00008532 Ry

     iteration # 24     ecut=    30.00 Ry     beta= 0.30
     Davidson diagonalization with overlap
     ethr =  7.83E-08,  avg # of iterations =  2.1

     negative rho (up, down):  6.976E-04 0.000E+00

     total cpu time spent up to now is    70362.3 secs

     total energy              =    -447.81824930 Ry
     Harris-Foulkes estimate   =    -447.81825078 Ry
     estimated scf accuracy    <       0.00032711 Ry

     iteration # 25     ecut=    30.00 Ry     beta= 0.30
     Davidson diagonalization with overlap
     ethr =  7.83E-08,  avg # of iterations =  1.0

     negative rho (up, down):  6.343E-04 0.000E+00

     total cpu time spent up to now is    70962.1 secs

     total energy              =    -447.81824685 Ry
     Harris-Foulkes estimate   =    -447.81824951 Ry
     estimated scf accuracy    <       0.00019022 Ry

     iteration # 26     ecut=    30.00 Ry     beta= 0.30
     Davidson diagonalization with overlap
     ethr =  7.83E-08,  avg # of iterations =  1.3

     negative rho (up, down):  8.237E-05 0.000E+00

     total cpu time spent up to now is    71548.5 secs

     End of self-consistent calculation

     Number of k-points >= 100: set verbosity='high' to print the bands.

     the Fermi energy is    -0.9817 ev

!    total energy              =    -447.81824286 Ry
     Harris-Foulkes estimate   =    -447.81824829 Ry
     estimated scf accuracy    <       0.00000462 Ry

     The total energy is the sum of the following terms:

     one-electron contribution =   -9774.31091101 Ry
     hartree contribution      =    4905.10117955 Ry
     xc contribution           =    -356.01395182 Ry
     ewald contribution        =    4777.40354761 Ry
     smearing contrib. (-TS)   =       0.00189281 Ry

     convergence has been achieved in  26 iterations

     negative rho (up, down):  8.237E-05 0.000E+00

     Forces acting on atoms (cartesian axes, Ry/au):

     atom    1 type  1   force =    -0.00004810   -0.00002777    0.00015892
     atom    2 type  1   force =     0.00005312    0.00003067    0.00017443
     atom    3 type  1   force =     0.00004714   -0.00008945    0.00016606
     atom    4 type  1   force =    -0.00005389    0.00008555    0.00016606
     atom    5 type  1   force =    -0.00001602   -0.00000925    0.00425051
     atom    6 type  1   force =     0.00001231    0.00000711    0.00418635
     atom    7 type  1   force =     0.00001580   -0.00002367    0.00421639
     atom    8 type  1   force =    -0.00001260    0.00002552    0.00421639
     atom    9 type  1   force =    -0.00000524   -0.00000378    0.00003257
     atom   10 type  1   force =    -0.00000589   -0.00000264    0.00003257
     atom   11 type  1   force =     0.00000383    0.00000221    0.00003201
     atom   12 type  1   force =     0.00000470    0.00000271    0.00003392
     atom   13 type  1   force =     0.00001248    0.00000721   -0.00004008
     atom   14 type  1   force =     0.00001895    0.00001094    0.00002644
     atom   15 type  1   force =    -0.00001287   -0.00001470   -0.00000714
     atom   16 type  1   force =    -0.00001917   -0.00000380   -0.00000714
     atom   17 type  1   force =    -0.00000990   -0.00000571    0.00000840
     atom   18 type  1   force =    -0.00001192   -0.00000688    0.00004696
     atom   19 type  1   force =     0.00000859    0.00000718    0.00002836
     atom   20 type  1   force =     0.00001051    0.00000385    0.00002836
     atom   21 type  1   force =     0.00003265   -0.00005293   -0.00003801
     atom   22 type  1   force =    -0.00002951    0.00005474   -0.00003801
     atom   23 type  1   force =    -0.00003320   -0.00001917   -0.00000413
     atom   24 type  1   force =     0.00002849    0.00001645   -0.00000414
     atom   25 type  1   force =    -0.00022061   -0.00012737   -0.00055599
     atom   26 type  1   force =     0.00052298    0.00030194   -0.00040587
     atom   27 type  1   force =     0.00028650   -0.00076980   -0.00037238
     atom   28 type  1   force =    -0.00052342    0.00063302   -0.00037238
     atom   29 type  1   force =    -0.00011698   -0.00006754   -0.00017857
     atom   30 type  1   force =     0.00019531    0.00011276    0.00002219
     atom   31 type  1   force =     0.00011518   -0.00029400   -0.00011803
     atom   32 type  1   force =    -0.00019702    0.00024675   -0.00011803
     atom   33 type  1   force =     0.00272226   -0.00466202   -0.00418359
     atom   34 type  1   force =    -0.00267630    0.00468856   -0.00418359
     atom   35 type  1   force =     0.00440792    0.00254492   -0.00378165
     atom   36 type  1   force =    -0.00442710   -0.00255599   -0.00377781
     atom   37 type  2   force =    -0.00007897   -0.00004559    0.00035962

     Total force =     0.015755     Total SCF correction =     0.002104
     SCF correction compared to forces is large: reduce conv_thr to get better values


     Computing stress (Cartesian axis) and pressure


     negative rho (up, down):  8.237E-05 0.000E+00
          total   stress  (Ry/bohr**3)                   (kbar)     P=  -23.80
  -0.00020544  -0.00000925  -0.00000004        -30.22     -1.36     -0.01
  -0.00000925  -0.00019476  -0.00000002         -1.36    -28.65     -0.00
  -0.00000004  -0.00000002  -0.00008508         -0.01     -0.00    -12.52


     number of scf cycles    =   4
     number of bfgs steps    =   3

     energy   old            =    -447.8157193492 Ry
     energy   new            =    -447.8182428638 Ry

     CASE: energy  _new < energy  _old

     new trust radius        =       0.0074026733 bohr
     new conv_thr            =       0.0000016879 Ry


ATOMIC_POSITIONS (crystal)
Al       0.333305755   0.166652624   0.055562526
Al       0.333310008   0.666654766   0.055562728
Al       0.833359172   0.166676015   0.055562610
Al       0.833359172   0.666682666   0.055562610
Al       0.000003780   0.000001890   0.000148513
Al      -0.000006789   0.499996605   0.000147568
Al       0.500001922   0.000009019   0.000148087
Al       0.500001922   0.499992903   0.000148087
Al       0.166646951   0.333305774   0.111112638
Al       0.166646951   0.833341668   0.111112638
Al       0.666673770   0.333337123   0.111112722
Al       0.666697549   0.833349013   0.111112583
Al       0.333340305   0.166669900   0.222221434
Al       0.333339425   0.666669474   0.222222538
Al       0.833327464   0.166664176   0.222221971
Al       0.833327464   0.666662797   0.222221971
Al      -0.000010369  -0.000005185   0.166667304
Al      -0.000002730   0.499998635   0.166667881
Al       0.500006298  -0.000002637   0.166667601
Al       0.500006298   0.500008935   0.166667601
Al       0.166662633   0.333296524   0.277776915
Al       0.166662633   0.833366600   0.277776915
Al       0.666647244   0.333323860   0.277777734
Al       0.666694028   0.833347252   0.277777737
Al       0.333219740   0.166609617   0.388878725
Al       0.333491616   0.666745570   0.388878857
Al       0.833336051   0.166427285   0.388878992
Al       0.833336051   0.666908275   0.388878992
Al       0.000014314   0.000007157   0.333329306
Al       0.000077501   0.500038751   0.333332120
Al       0.499953851  -0.000070302   0.333330052
Al       0.499953851   0.500024152   0.333330052
Al       0.166679103   0.369948433   0.444295280
Al       0.166679103   0.796731161   0.444295280
Al       0.675238271   0.337619373   0.444320619
Al       0.658070713   0.829035595   0.444320024
H        0.166615489   0.083307745   0.444415230



     Writing output data file Al_H21_et1_3_3.save/
     NEW-OLD atomic charge density approx. for the potential

     negative rho (up, down):  8.249E-05 0.000E+00

     total cpu time spent up to now is    72098.5 secs

     Self-consistent Calculation

     iteration #  1     ecut=    30.00 Ry     beta= 0.30
     Davidson diagonalization with overlap
     ethr =  1.00E-06,  avg # of iterations =  6.8

     negative rho (up, down):  1.165E-04 0.000E+00

     total cpu time spent up to now is    73119.5 secs

     total energy              =    -447.81853213 Ry
     Harris-Foulkes estimate   =    -447.81908877 Ry
     estimated scf accuracy    <       0.22597572 Ry

     iteration #  2     ecut=    30.00 Ry     beta= 0.30
     Davidson diagonalization with overlap
     ethr =  2.07E-04,  avg # of iterations =  1.0

     negative rho (up, down):  3.436E-04 0.000E+00

     total cpu time spent up to now is    73726.9 secs

     total energy              =    -447.81779145 Ry
     Harris-Foulkes estimate   =    -447.81861961 Ry
     estimated scf accuracy    <       0.10601807 Ry

     iteration #  3     ecut=    30.00 Ry     beta= 0.30
     Davidson diagonalization with overlap
     ethr =  9.73E-05,  avg # of iterations =  1.0

     negative rho (up, down):  4.667E-04 0.000E+00

     total cpu time spent up to now is    74328.3 secs

     total energy              =    -447.81820238 Ry
     Harris-Foulkes estimate   =    -447.81820262 Ry
     estimated scf accuracy    <       0.00007421 Ry

     iteration #  4     ecut=    30.00 Ry     beta= 0.30
     Davidson diagonalization with overlap
     c_bands:  1 eigenvalues not converged
     c_bands:  1 eigenvalues not converged
     c_bands:  1 eigenvalues not converged
     c_bands:  1 eigenvalues not converged
     c_bands:  1 eigenvalues not converged
     c_bands:  2 eigenvalues not converged
     c_bands:  2 eigenvalues not converged
     c_bands:  1 eigenvalues not converged
     c_bands:  1 eigenvalues not converged
     c_bands:  3 eigenvalues not converged
     c_bands:  1 eigenvalues not converged
     c_bands:  1 eigenvalues not converged
     c_bands:  1 eigenvalues not converged
     c_bands:  1 eigenvalues not converged
     c_bands:  1 eigenvalues not converged
     c_bands:  2 eigenvalues not converged
     c_bands:  2 eigenvalues not converged
     ethr =  6.81E-08,  avg # of iterations = 10.5

     negative rho (up, down):  4.675E-04 0.000E+00

     total cpu time spent up to now is    75180.5 secs

     total energy              =    -447.81867947 Ry
     Harris-Foulkes estimate   =    -447.81864646 Ry
     estimated scf accuracy    <       0.05666715 Ry

     iteration #  5     ecut=    30.00 Ry     beta= 0.30
     Davidson diagonalization with overlap
     c_bands:  1 eigenvalues not converged
     c_bands:  1 eigenvalues not converged
     ethr =  6.81E-08,  avg # of iterations =  2.3

     negative rho (up, down):  4.634E-04 0.000E+00

     total cpu time spent up to now is    75793.4 secs

     total energy              =    -447.81864826 Ry
     Harris-Foulkes estimate   =    -447.81868106 Ry
     estimated scf accuracy    <       0.06643454 Ry

     iteration #  6     ecut=    30.00 Ry     beta= 0.30
     Davidson diagonalization with overlap
     ethr =  6.81E-08,  avg # of iterations =  1.0

     negative rho (up, down):  4.372E-04 0.000E+00

     total cpu time spent up to now is    76388.9 secs

     total energy              =    -447.81834440 Ry
     Harris-Foulkes estimate   =    -447.81864911 Ry
     estimated scf accuracy    <       0.05969505 Ry

     iteration #  7     ecut=    30.00 Ry     beta= 0.30
     Davidson diagonalization with overlap
     c_bands:  1 eigenvalues not converged
     c_bands:  1 eigenvalues not converged
     c_bands:  1 eigenvalues not converged
     c_bands:  1 eigenvalues not converged
     c_bands:  1 eigenvalues not converged
     c_bands:  1 eigenvalues not converged
     ethr =  6.81E-08,  avg # of iterations =  5.2

     negative rho (up, down):  4.382E-04 0.000E+00

     total cpu time spent up to now is    77099.2 secs

     total energy              =    -447.81847434 Ry
     Harris-Foulkes estimate   =    -447.81847682 Ry
     estimated scf accuracy    <       0.00099196 Ry

     iteration #  8     ecut=    30.00 Ry     beta= 0.30
     Davidson diagonalization with overlap
     ethr =  6.81E-08,  avg # of iterations =  1.1

     negative rho (up, down):  4.306E-04 0.000E+00

     total cpu time spent up to now is    77697.0 secs

     total energy              =    -447.81848193 Ry
     Harris-Foulkes estimate   =    -447.81847477 Ry
     estimated scf accuracy    <       0.00055084 Ry

     iteration #  9     ecut=    30.00 Ry     beta= 0.30
     Davidson diagonalization with overlap
     c_bands:  1 eigenvalues not converged
     ethr =  6.81E-08,  avg # of iterations =  3.7

     negative rho (up, down):  3.867E-04 0.000E+00

     total cpu time spent up to now is    78346.1 secs

     total energy              =    -447.81846541 Ry
     Harris-Foulkes estimate   =    -447.81849378 Ry
     estimated scf accuracy    <       0.00649025 Ry

     iteration # 10     ecut=    30.00 Ry     beta= 0.30
     Davidson diagonalization with overlap
     ethr =  6.81E-08,  avg # of iterations =  3.4

     negative rho (up, down):  3.645E-04 0.000E+00

     total cpu time spent up to now is    78989.2 secs

     total energy              =    -447.81846768 Ry
     Harris-Foulkes estimate   =    -447.81847439 Ry
     estimated scf accuracy    <       0.00069071 Ry

     iteration # 11     ecut=    30.00 Ry     beta= 0.30
     Davidson diagonalization with overlap
     ethr =  6.81E-08,  avg # of iterations =  3.3

     negative rho (up, down):  3.445E-04 0.000E+00

     total cpu time spent up to now is    79624.3 secs

     total energy              =    -447.81847094 Ry
     Harris-Foulkes estimate   =    -447.81847292 Ry
     estimated scf accuracy    <       0.00032519 Ry

     iteration # 12     ecut=    30.00 Ry     beta= 0.30
     Davidson diagonalization with overlap
     ethr =  6.81E-08,  avg # of iterations =  1.0

     negative rho (up, down):  2.786E-04 0.000E+00

     total cpu time spent up to now is    80222.2 secs

     total energy              =    -447.81847090 Ry
     Harris-Foulkes estimate   =    -447.81847143 Ry
     estimated scf accuracy    <       0.00009358 Ry

     iteration # 13     ecut=    30.00 Ry     beta= 0.30
     Davidson diagonalization with overlap
     ethr =  6.81E-08,  avg # of iterations =  3.6

     negative rho (up, down):  2.953E-04 0.000E+00

     total cpu time spent up to now is    80863.2 secs

     total energy              =    -447.81846954 Ry
     Harris-Foulkes estimate   =    -447.81847605 Ry
     estimated scf accuracy    <       0.00103293 Ry

     iteration # 14     ecut=    30.00 Ry     beta= 0.30
     Davidson diagonalization with overlap
     ethr =  6.81E-08,  avg # of iterations =  1.8

     negative rho (up, down):  3.143E-04 0.000E+00

     total cpu time spent up to now is    81464.2 secs

     total energy              =    -447.81846789 Ry
     Harris-Foulkes estimate   =    -447.81847114 Ry
     estimated scf accuracy    <       0.00025133 Ry

     iteration # 15     ecut=    30.00 Ry     beta= 0.30
     Davidson diagonalization with overlap
     ethr =  6.81E-08,  avg # of iterations =  3.4

     negative rho (up, down):  2.844E-04 0.000E+00

     total cpu time spent up to now is    82101.6 secs

     total energy              =    -447.81847222 Ry
     Harris-Foulkes estimate   =    -447.81847196 Ry
     estimated scf accuracy    <       0.00013015 Ry

     iteration # 16     ecut=    30.00 Ry     beta= 0.30
     Davidson diagonalization with overlap
     ethr =  6.81E-08,  avg # of iterations =  1.1

     negative rho (up, down):  2.499E-04 0.000E+00

     total cpu time spent up to now is    82697.8 secs

     total energy              =    -447.81847183 Ry
     Harris-Foulkes estimate   =    -447.81847249 Ry
     estimated scf accuracy    <       0.00017934 Ry

     iteration # 17     ecut=    30.00 Ry     beta= 0.30
     Davidson diagonalization with overlap
     ethr =  6.81E-08,  avg # of iterations =  1.0

     negative rho (up, down):  1.745E-04 0.000E+00

     total cpu time spent up to now is    83296.5 secs

     total energy              =    -447.81847006 Ry
     Harris-Foulkes estimate   =    -447.81847190 Ry
     estimated scf accuracy    <       0.00013914 Ry

     iteration # 18     ecut=    30.00 Ry     beta= 0.30
     Davidson diagonalization with overlap
     ethr =  6.81E-08,  avg # of iterations =  1.2

     negative rho (up, down):  1.621E-04 0.000E+00

     total cpu time spent up to now is    83895.0 secs

     total energy              =    -447.81847085 Ry
     Harris-Foulkes estimate   =    -447.81847088 Ry
     estimated scf accuracy    <       0.00000174 Ry

     iteration # 19     ecut=    30.00 Ry     beta= 0.30
     Davidson diagonalization with overlap
     c_bands:  1 eigenvalues not converged
     c_bands:  1 eigenvalues not converged
     c_bands:  1 eigenvalues not converged
     c_bands:  1 eigenvalues not converged
     c_bands:  1 eigenvalues not converged
     c_bands:  1 eigenvalues not converged
     c_bands:  1 eigenvalues not converged
     c_bands:  1 eigenvalues not converged
     c_bands:  1 eigenvalues not converged
     c_bands:  1 eigenvalues not converged
     ethr =  1.60E-09,  avg # of iterations =  4.8

     negative rho (up, down):  1.642E-04 0.000E+00

     total cpu time spent up to now is    84586.7 secs

     total energy              =    -447.81847124 Ry
     Harris-Foulkes estimate   =    -447.81847133 Ry
     estimated scf accuracy    <       0.00002717 Ry

     iteration # 20     ecut=    30.00 Ry     beta= 0.30
     Davidson diagonalization with overlap
     ethr =  1.60E-09,  avg # of iterations =  2.0

     negative rho (up, down):  1.647E-04 0.000E+00

     total cpu time spent up to now is    85190.7 secs

     total energy              =    -447.81847126 Ry
     Harris-Foulkes estimate   =    -447.81847126 Ry
     estimated scf accuracy    <       0.00001046 Ry

     iteration # 21     ecut=    30.00 Ry     beta= 0.30
     Davidson diagonalization with overlap
     ethr =  1.60E-09,  avg # of iterations =  1.0

     negative rho (up, down):  1.388E-04 0.000E+00

     total cpu time spent up to now is    85788.0 secs

     total energy              =    -447.81847124 Ry
     Harris-Foulkes estimate   =    -447.81847126 Ry
     estimated scf accuracy    <       0.00001194 Ry

     iteration # 22     ecut=    30.00 Ry     beta= 0.30
     Davidson diagonalization with overlap
     ethr =  1.60E-09,  avg # of iterations =  2.2

     negative rho (up, down):  1.320E-04 0.000E+00

     total cpu time spent up to now is    86404.2 secs

     total energy              =    -447.81847124 Ry
     Harris-Foulkes estimate   =    -447.81847128 Ry
     estimated scf accuracy    <       0.00001124 Ry

     iteration # 23     ecut=    30.00 Ry     beta= 0.30
     Davidson diagonalization with overlap
     ethr =  1.60E-09,  avg # of iterations =  1.0

     negative rho (up, down):  1.203E-04 0.000E+00

     total cpu time spent up to now is    86997.6 secs

     total energy              =    -447.81847114 Ry
     Harris-Foulkes estimate   =    -447.81847125 Ry
     estimated scf accuracy    <       0.00000967 Ry

     iteration # 24     ecut=    30.00 Ry     beta= 0.30
     Davidson diagonalization with overlap
