
     Program PWSCF v.6.4.1 starts on 29May2020 at  7:48:33 

     This program is part of the open-source Quantum ESPRESSO suite
     for quantum simulation of materials; please cite
         "P. Giannozzi et al., J. Phys.:Condens. Matter 21 395502 (2009);
         "P. Giannozzi et al., J. Phys.:Condens. Matter 29 465901 (2017);
          URL http://www.quantum-espresso.org", 
     in publications or presentations arising from this work. More details at
     http://www.quantum-espresso.org/quote

     Parallel version (MPI), running on     1 processors

     MPI processes distributed on     1 nodes
     Reading input from Al_111_surf_vslab_4.pw.in

     Current dimensions of program PWSCF are:
     Max number of different atomic species (ntypx) = 10
     Max number of k-points (npk) =  40000
     Max angular momentum in pseudopotentials (lmaxx) =  3

     Subspace diagonalization in iterative solution of the eigenvalue problem:
     a serial algorithm will be used


     G-vector sticks info
     --------------------
     sticks:   dense  smooth     PW     G-vecs:    dense   smooth      PW
     Sum         301     301    211                82059    82059   47569



     bravais-lattice index     =            4
     lattice parameter (alat)  =       5.3760  a.u.
     unit-cell volume          =    2636.7808 (a.u.)^3
     number of atoms/cell      =           12
     number of atomic types    =            1
     number of electrons       =        36.00
     number of Kohn-Sham states=           22
     kinetic-energy cutoff     =      90.0000  Ry
     charge density cutoff     =     150.0000  Ry
     convergence threshold     =      1.2E-05
     mixing beta               =       0.3000
     number of iterations used =            8  local-TF  mixing
     Exchange-correlation      =  SLA  PW   PBE  PBE ( 1  4  3  4 0 0)
     nstep                     =           50


     celldm(1)=   5.376000  celldm(2)=   0.000000  celldm(3)=  19.595918
     celldm(4)=   0.000000  celldm(5)=   0.000000  celldm(6)=   0.000000

     crystal axes: (cart. coord. in units of alat)
               a(1) = (   1.000000   0.000000   0.000000 )  
               a(2) = (  -0.500000   0.866025   0.000000 )  
               a(3) = (   0.000000   0.000000  19.595918 )  

     reciprocal axes: (cart. coord. in units 2 pi/alat)
               b(1) = (  1.000000  0.577350 -0.000000 )  
               b(2) = (  0.000000  1.154701  0.000000 )  
               b(3) = (  0.000000 -0.000000  0.051031 )  


     PseudoPot. # 1 for Al read from file:
     ./Al.pbe-n-van.UPF
     MD5 check sum: b11ded24487aef5bc42d5c7a2e22a7b6
     Pseudo is Ultrasoft + core correction, Zval =  3.0
     Generated by new atomic code, or converted to UPF format
     Using radial grid of  893 points,  2 beta functions with: 
                l(1) =   0
                l(2) =   1
     Q(r) pseudized with  8 coefficients,  rinner =    0.900   0.900   0.900


     atomic species   valence    mass     pseudopotential
        Al             3.00    26.98000     Al( 1.00)

      6 Sym. Ops. (no inversion) found



   Cartesian axes

     site n.     atom                  positions (alat units)
         1           Al  tau(   1) = (   0.4999999   0.2886751   0.8164965  )
         2           Al  tau(   2) = (   0.0000000   0.0000000   0.0000000  )
         3           Al  tau(   3) = (   0.0000000   0.5773502   1.6329930  )
         4           Al  tau(   4) = (   0.4999999   0.2886751   3.2659862  )
         5           Al  tau(   5) = (   0.0000000   0.0000000   2.4494897  )
         6           Al  tau(   6) = (   0.0000000   0.5773502   4.0824827  )
         7           Al  tau(   7) = (   0.4999999   0.2886751   5.7154760  )
         8           Al  tau(   8) = (   0.0000000   0.0000000   4.8989795  )
         9           Al  tau(   9) = (   0.0000000   0.5773502   6.5319725  )
        10           Al  tau(  10) = (   0.4999999   0.2886751   8.1649657  )
        11           Al  tau(  11) = (   0.0000000   0.0000000   7.3484692  )
        12           Al  tau(  12) = (   0.0000000   0.5773502   8.9814622  )

     number of k points=    30  Marzari-Vanderbilt smearing, width (Ry)=  0.0250
                       cart. coord. in units 2pi/alat
        k(    1) = (   0.0000000   0.0000000   0.0000000), wk =   0.0078125
        k(    2) = (   0.0000000   0.0721688   0.0000000), wk =   0.0468750
        k(    3) = (   0.0000000   0.1443376   0.0000000), wk =   0.0468750
        k(    4) = (   0.0000000   0.2165064   0.0000000), wk =   0.0468750
        k(    5) = (   0.0000000   0.2886751   0.0000000), wk =   0.0468750
        k(    6) = (   0.0000000   0.3608439   0.0000000), wk =   0.0468750
        k(    7) = (   0.0000000   0.4330127   0.0000000), wk =   0.0468750
        k(    8) = (   0.0000000   0.5051815   0.0000000), wk =   0.0468750
        k(    9) = (   0.0000000  -0.5773503   0.0000000), wk =   0.0234375
        k(   10) = (   0.0625000   0.1082532   0.0000000), wk =   0.0468750
        k(   11) = (   0.0625000   0.1804220   0.0000000), wk =   0.0937500
        k(   12) = (   0.0625000   0.2525907   0.0000000), wk =   0.0937500
        k(   13) = (   0.0625000   0.3247595   0.0000000), wk =   0.0937500
        k(   14) = (   0.0625000   0.3969283   0.0000000), wk =   0.0937500
        k(   15) = (   0.0625000   0.4690971   0.0000000), wk =   0.0937500
        k(   16) = (   0.0625000   0.5412659   0.0000000), wk =   0.0937500
        k(   17) = (   0.1250000   0.2165064   0.0000000), wk =   0.0468750
        k(   18) = (   0.1250000   0.2886751   0.0000000), wk =   0.0937500
        k(   19) = (   0.1250000   0.3608439   0.0000000), wk =   0.0937500
        k(   20) = (   0.1250000   0.4330127   0.0000000), wk =   0.0937500
        k(   21) = (   0.1250000   0.5051815   0.0000000), wk =   0.0937500
        k(   22) = (   0.1250000   0.5773503   0.0000000), wk =   0.0468750
        k(   23) = (   0.1875000   0.3247595   0.0000000), wk =   0.0468750
        k(   24) = (   0.1875000   0.3969283   0.0000000), wk =   0.0937500
        k(   25) = (   0.1875000   0.4690971   0.0000000), wk =   0.0937500
        k(   26) = (   0.1875000   0.5412659   0.0000000), wk =   0.0937500
        k(   27) = (   0.2500000   0.4330127   0.0000000), wk =   0.0468750
        k(   28) = (   0.2500000   0.5051815   0.0000000), wk =   0.0937500
        k(   29) = (   0.2500000   0.5773503   0.0000000), wk =   0.0468750
        k(   30) = (   0.3125000   0.5412659   0.0000000), wk =   0.0468750

     Dense  grid:    82059 G-vectors     FFT dimensions: (  24,  24, 432)

     Estimated max dynamical RAM per process >     628.28 MB

     Initial potential from superposition of free atoms

     starting charge   35.97042, renormalised to   36.00000

     negative rho (up, down):  4.246E-05 0.000E+00
     Starting wfcs are   48 randomized atomic wfcs

     total cpu time spent up to now is      113.0 secs

     Self-consistent Calculation

     iteration #  1     ecut=    90.00 Ry     beta= 0.30
     Davidson diagonalization with overlap
     ethr =  1.00E-02,  avg # of iterations =  3.1

     total cpu time spent up to now is      309.3 secs

     total energy              =    -149.57721249 Ry
     Harris-Foulkes estimate   =    -149.60207465 Ry
     estimated scf accuracy    <       1.14771047 Ry

     iteration #  2     ecut=    90.00 Ry     beta= 0.30
     Davidson diagonalization with overlap
     ethr =  3.19E-03,  avg # of iterations =  1.0

     negative rho (up, down):  1.885E-05 0.000E+00

     total cpu time spent up to now is      420.6 secs

     total energy              =    -149.49868103 Ry
     Harris-Foulkes estimate   =    -149.58556801 Ry
     estimated scf accuracy    <       0.86529576 Ry

     iteration #  3     ecut=    90.00 Ry     beta= 0.30
     Davidson diagonalization with overlap
     ethr =  2.40E-03,  avg # of iterations =  1.9

     total cpu time spent up to now is      538.2 secs

     total energy              =    -149.53491825 Ry
     Harris-Foulkes estimate   =    -149.55144766 Ry
     estimated scf accuracy    <       0.14075574 Ry

     iteration #  4     ecut=    90.00 Ry     beta= 0.30
     Davidson diagonalization with overlap
     ethr =  3.91E-04,  avg # of iterations =  2.8

     total cpu time spent up to now is      661.4 secs

     total energy              =    -149.54449556 Ry
     Harris-Foulkes estimate   =    -149.54489215 Ry
     estimated scf accuracy    <       0.02148216 Ry

     iteration #  5     ecut=    90.00 Ry     beta= 0.30
     Davidson diagonalization with overlap
     ethr =  5.97E-05,  avg # of iterations =  5.8

     total cpu time spent up to now is      794.5 secs

     total energy              =    -149.54517373 Ry
     Harris-Foulkes estimate   =    -149.54535033 Ry
     estimated scf accuracy    <       0.02274515 Ry

     iteration #  6     ecut=    90.00 Ry     beta= 0.30
     Davidson diagonalization with overlap
     ethr =  5.97E-05,  avg # of iterations =  1.0

     total cpu time spent up to now is      906.5 secs

     total energy              =    -149.53848749 Ry
     Harris-Foulkes estimate   =    -149.54530450 Ry
     estimated scf accuracy    <       0.01783889 Ry

     iteration #  7     ecut=    90.00 Ry     beta= 0.30
     Davidson diagonalization with overlap
     ethr =  4.96E-05,  avg # of iterations =  5.3

     total cpu time spent up to now is     1110.7 secs

     total energy              =    -149.57556291 Ry
     Harris-Foulkes estimate   =    -149.57666780 Ry
     estimated scf accuracy    <       2.65195507 Ry

     iteration #  8     ecut=    90.00 Ry     beta= 0.30
     Davidson diagonalization with overlap
     ethr =  4.96E-05,  avg # of iterations =  1.4

     total cpu time spent up to now is     1224.5 secs

     total energy              =    -149.51772810 Ry
     Harris-Foulkes estimate   =    -149.57609494 Ry
     estimated scf accuracy    <       2.57731196 Ry

     iteration #  9     ecut=    90.00 Ry     beta= 0.30
     Davidson diagonalization with overlap
     ethr =  4.96E-05,  avg # of iterations =  5.0

     total cpu time spent up to now is     1417.5 secs

     total energy              =    -149.54264995 Ry
     Harris-Foulkes estimate   =    -149.54341800 Ry
     estimated scf accuracy    <       0.06569777 Ry

     iteration # 10     ecut=    90.00 Ry     beta= 0.30
     Davidson diagonalization with overlap
     ethr =  4.96E-05,  avg # of iterations =  1.0

     total cpu time spent up to now is     1529.8 secs

     total energy              =    -149.53756630 Ry
     Harris-Foulkes estimate   =    -149.54285588 Ry
     estimated scf accuracy    <       0.07053521 Ry

     iteration # 11     ecut=    90.00 Ry     beta= 0.30
     Davidson diagonalization with overlap
     ethr =  4.96E-05,  avg # of iterations =  3.8

     negative rho (up, down):  1.420E-03 0.000E+00

     total cpu time spent up to now is     1688.4 secs

     total energy              =    -149.54107320 Ry
     Harris-Foulkes estimate   =    -149.54484166 Ry
     estimated scf accuracy    <       0.13452196 Ry

     iteration # 12     ecut=    90.00 Ry     beta= 0.30
     Davidson diagonalization with overlap
     ethr =  4.96E-05,  avg # of iterations =  2.8

     negative rho (up, down):  6.092E-04 0.000E+00

     total cpu time spent up to now is     1812.0 secs

     total energy              =    -149.54019537 Ry
     Harris-Foulkes estimate   =    -149.54316343 Ry
     estimated scf accuracy    <       0.02408296 Ry

     iteration # 13     ecut=    90.00 Ry     beta= 0.30
     Davidson diagonalization with overlap
     ethr =  4.96E-05,  avg # of iterations =  2.1

     negative rho (up, down):  8.366E-03 0.000E+00

     total cpu time spent up to now is     1933.9 secs

     total energy              =    -149.54100449 Ry
     Harris-Foulkes estimate   =    -149.54159686 Ry
     estimated scf accuracy    <       0.00974907 Ry

     iteration # 14     ecut=    90.00 Ry     beta= 0.30
     Davidson diagonalization with overlap
     ethr =  2.71E-05,  avg # of iterations =  3.1

     negative rho (up, down):  8.215E-03 0.000E+00

     total cpu time spent up to now is     2071.6 secs

     total energy              =    -149.54284114 Ry
     Harris-Foulkes estimate   =    -149.54208049 Ry
     estimated scf accuracy    <       0.01132839 Ry

     iteration # 15     ecut=    90.00 Ry     beta= 0.30
     Davidson diagonalization with overlap
     ethr =  2.71E-05,  avg # of iterations =  2.6

     negative rho (up, down):  1.154E-02 0.000E+00

     total cpu time spent up to now is     2197.9 secs

     total energy              =    -149.53780827 Ry
     Harris-Foulkes estimate   =    -149.54377521 Ry
     estimated scf accuracy    <       0.08133421 Ry

     iteration # 16     ecut=    90.00 Ry     beta= 0.30
     Davidson diagonalization with overlap
     ethr =  2.71E-05,  avg # of iterations =  3.8

     negative rho (up, down):  1.085E-02 0.000E+00

     total cpu time spent up to now is     2357.7 secs

     total energy              =    -149.54108603 Ry
     Harris-Foulkes estimate   =    -149.54187742 Ry
     estimated scf accuracy    <       0.02219596 Ry

     iteration # 17     ecut=    90.00 Ry     beta= 0.30
     Davidson diagonalization with overlap
     ethr =  2.71E-05,  avg # of iterations =  1.3

     negative rho (up, down):  1.038E-02 0.000E+00

     total cpu time spent up to now is     2472.9 secs

     total energy              =    -149.54080295 Ry
     Harris-Foulkes estimate   =    -149.54127005 Ry
     estimated scf accuracy    <       0.00619906 Ry

     iteration # 18     ecut=    90.00 Ry     beta= 0.30
     Davidson diagonalization with overlap
     ethr =  1.72E-05,  avg # of iterations =  2.2

     negative rho (up, down):  8.262E-03 0.000E+00

     total cpu time spent up to now is     2591.5 secs

     total energy              =    -149.54070494 Ry
     Harris-Foulkes estimate   =    -149.54103661 Ry
     estimated scf accuracy    <       0.00089710 Ry

     iteration # 19     ecut=    90.00 Ry     beta= 0.30
     Davidson diagonalization with overlap
     ethr =  2.49E-06,  avg # of iterations =  5.7

     negative rho (up, down):  9.336E-03 0.000E+00

     total cpu time spent up to now is     2777.0 secs

     total energy              =    -149.54043521 Ry
     Harris-Foulkes estimate   =    -149.54107923 Ry
     estimated scf accuracy    <       0.00489968 Ry

     iteration # 20     ecut=    90.00 Ry     beta= 0.30
     Davidson diagonalization with overlap
     ethr =  2.49E-06,  avg # of iterations =  5.4

     negative rho (up, down):  8.439E-03 0.000E+00

     total cpu time spent up to now is     2945.7 secs

     total energy              =    -149.54068202 Ry
     Harris-Foulkes estimate   =    -149.54071523 Ry
     estimated scf accuracy    <       0.00062258 Ry

     iteration # 21     ecut=    90.00 Ry     beta= 0.30
     Davidson diagonalization with overlap
     ethr =  1.73E-06,  avg # of iterations =  2.8

     negative rho (up, down):  6.059E-03 0.000E+00

     total cpu time spent up to now is     3065.6 secs

     total energy              =    -149.54064491 Ry
     Harris-Foulkes estimate   =    -149.54070051 Ry
     estimated scf accuracy    <       0.00035616 Ry

     iteration # 22     ecut=    90.00 Ry     beta= 0.30
     Davidson diagonalization with overlap
     ethr =  9.89E-07,  avg # of iterations =  3.9

     negative rho (up, down):  3.614E-03 0.000E+00

     total cpu time spent up to now is     3194.3 secs

     total energy              =    -149.54060455 Ry
     Harris-Foulkes estimate   =    -149.54066061 Ry
     estimated scf accuracy    <       0.00012638 Ry

     iteration # 23     ecut=    90.00 Ry     beta= 0.30
     Davidson diagonalization with overlap
     ethr =  3.51E-07,  avg # of iterations =  4.7

     negative rho (up, down):  1.382E-03 0.000E+00

     total cpu time spent up to now is     3341.5 secs

     total energy              =    -149.54054947 Ry
     Harris-Foulkes estimate   =    -149.54063769 Ry
     estimated scf accuracy    <       0.00160087 Ry

     iteration # 24     ecut=    90.00 Ry     beta= 0.30
     Davidson diagonalization with overlap
     ethr =  3.51E-07,  avg # of iterations =  5.2

     negative rho (up, down):  1.298E-03 0.000E+00

     total cpu time spent up to now is     3498.4 secs

     total energy              =    -149.54060233 Ry
     Harris-Foulkes estimate   =    -149.54061318 Ry
     estimated scf accuracy    <       0.00123119 Ry

     iteration # 25     ecut=    90.00 Ry     beta= 0.30
     Davidson diagonalization with overlap
     ethr =  3.51E-07,  avg # of iterations =  1.2

     negative rho (up, down):  9.069E-04 0.000E+00

     total cpu time spent up to now is     3616.0 secs

     total energy              =    -149.54059315 Ry
     Harris-Foulkes estimate   =    -149.54060508 Ry
     estimated scf accuracy    <       0.00050652 Ry

     iteration # 26     ecut=    90.00 Ry     beta= 0.30
     Davidson diagonalization with overlap
     c_bands:  1 eigenvalues not converged
     ethr =  3.51E-07,  avg # of iterations =  4.2

     negative rho (up, down):  5.856E-04 0.000E+00

     total cpu time spent up to now is     3753.8 secs

     total energy              =    -149.54059874 Ry
     Harris-Foulkes estimate   =    -149.54060885 Ry
     estimated scf accuracy    <       0.00020441 Ry

     iteration # 27     ecut=    90.00 Ry     beta= 0.30
     Davidson diagonalization with overlap
     ethr =  3.51E-07,  avg # of iterations =  2.5

     negative rho (up, down):  5.143E-06 0.000E+00

     total cpu time spent up to now is     3872.5 secs

     End of self-consistent calculation

          k = 0.0000 0.0000 0.0000 ( 37897 PWs)   bands (ev):

    -9.2091  -9.0752  -8.8492  -8.5391  -8.1460  -7.6626  -7.0949  -6.4496
    -5.7161  -4.9115  -4.0237  -3.0299  -2.1758  -1.0331   0.1034   1.2755
     2.4704   3.6506   4.7358   5.5394   5.7307   6.0092

          k = 0.0000 0.0722 0.0000 ( 37802 PWs)   bands (ev):

    -9.1137  -8.9798  -8.7540  -8.4440  -8.0511  -7.5680  -7.0007  -6.3558
    -5.6227  -4.8185  -3.9313  -2.9373  -2.0864  -0.9435   0.1920   1.3630
     2.5565   3.7354   4.8207   5.6286   5.8270   6.1035

          k = 0.0000 0.1443 0.0000 ( 37826 PWs)   bands (ev):

    -8.8276  -8.6940  -8.4686  -8.1592  -7.7670  -7.2848  -6.7184  -6.0747
    -5.3429  -4.5402  -3.6545  -2.6603  -1.8186  -0.6756   0.4568   1.6234
     2.8117   3.9847   5.0674   5.8884   6.1151   6.3833

          k = 0.0000 0.2165 0.0000 ( 37846 PWs)   bands (ev):

    -8.3522  -8.2189  -7.9942  -7.6857  -7.2947  -6.8139  -6.2494  -5.6077
    -4.8782  -4.0781  -3.1952  -2.2017  -1.3735  -0.2326   0.8921   2.0472
     3.2168   4.3558   5.3714   6.0974   6.4115   6.5122

          k = 0.0000 0.2887 0.0000 ( 37974 PWs)   bands (ev):

    -7.6891  -7.5564  -7.3326  -7.0255  -6.6362  -6.1576  -5.5955  -4.9568
    -4.2309  -3.4351  -2.5572  -1.5677  -0.7545   0.3742   1.4735   2.5665
     3.4994   3.9957   4.3721   4.4731   4.7002   4.9927

          k = 0.0000 0.3608 0.0000 ( 38054 PWs)   bands (ev):

    -6.8409  -6.7090  -6.4865  -6.1811  -5.7942  -5.3185  -4.7601  -4.1258
    -3.4055  -2.6168  -1.7491  -0.7775   0.0215   1.0549   1.7129   1.9257
     2.2134   2.5746   2.8437   3.0314   3.4697   3.6372

          k = 0.0000 0.4330 0.0000 ( 38092 PWs)   bands (ev):

    -5.8112  -5.6803  -5.4594  -5.1565  -4.7728  -4.3013  -3.7483  -3.1214
    -2.4118  -1.6415  -0.8163  -0.0542   0.0253   0.1263   0.3584   0.7115
     1.1091   1.3484   1.6467   2.1392   2.3609   2.7333

          k = 0.0000 0.5052 0.0000 ( 38110 PWs)   bands (ev):

    -4.6045  -4.4750  -4.2565  -3.9570  -3.5785  -3.1146  -2.5743  -1.9820
    -1.6804  -1.5543  -1.3643  -1.2611  -1.0743  -0.8071  -0.5766  -0.1188
     0.4134   0.7714   1.0912   1.5964   1.7630   2.2535

          k = 0.0000-0.5774 0.0000 ( 38058 PWs)   bands (ev):

    -3.2296  -3.2274  -3.1033  -3.1007  -2.8922  -2.8895  -2.6379  -2.5452
    -2.2409  -2.1780  -1.7971  -1.7384  -1.3043  -1.2438  -0.8393  -0.3918
     0.1724   0.5012   1.0052   1.1037   1.8564   1.8999

          k = 0.0625 0.1083 0.0000 ( 37802 PWs)   bands (ev):

    -8.9229  -8.7892  -8.5636  -8.2541  -7.8617  -7.3791  -6.8125  -6.1683
    -5.4361  -4.6329  -3.7467  -2.7525  -1.9079  -0.7647   0.3688   1.5370
     2.7273   3.9028   4.9872   5.8040   6.0192   6.2912

          k = 0.0625 0.1804 0.0000 ( 37832 PWs)   bands (ev):

    -8.5422  -8.4088  -8.1837  -7.8749  -7.4834  -7.0021  -6.4368  -5.7943
    -5.0639  -4.2627  -3.3786  -2.3846  -1.5513  -0.4091   0.7193   1.8803
     3.0605   4.2223   5.2932   6.1222   6.4009   6.6459

          k = 0.0625 0.2526 0.0000 ( 37966 PWs)   bands (ev):

    -7.9729  -7.8400  -7.6158  -7.3080  -6.9180  -6.4385  -5.8753  -5.2353
    -4.5078  -3.7101  -2.8298  -1.8379  -1.0189   0.1175   1.2326   2.3703
     3.5001   4.5082   5.1479   5.4685   5.5447   5.7610

          k = 0.0625 0.3248 0.0000 ( 38038 PWs)   bands (ev):

    -7.2173  -7.0850  -6.8619  -6.5557  -6.1678  -5.6907  -5.1306  -4.4943
    -3.7712  -2.9789  -2.1057  -1.1225  -0.3173   0.7890   1.8300   2.6437
     2.9972   3.3291   3.6632   3.7245   4.0791   4.4122

          k = 0.0625 0.3969 0.0000 ( 38081 PWs)   bands (ev):

    -6.2783  -6.1469  -5.9253  -5.6212  -5.2360  -4.7624  -4.2067  -3.5760
    -2.8603  -2.0786  -1.2231  -0.2866   0.4812   0.9432   1.0509   1.2977
     1.6330   2.0027   2.2835   2.5637   3.0051   3.1381

          k = 0.0625 0.4691 0.0000 ( 38087 PWs)   bands (ev):

    -5.1600  -5.0298  -4.8101  -4.5089  -4.1276  -3.6594  -3.1111  -2.4918
    -1.7970  -1.0746  -0.7570  -0.6686  -0.4996  -0.3600  -0.1449   0.2915
     0.7906   1.2349   1.3662   1.7592   1.9525   2.6263

          k = 0.0625 0.5413 0.0000 ( 38045 PWs)   bands (ev):

    -3.8679  -3.7395  -3.5230  -3.2269  -2.8549  -2.4372  -2.3966  -2.2690
    -2.0625  -1.8436  -1.7757  -1.4262  -1.2687  -1.0255  -0.7069  -0.2560
     0.2958   0.6312   1.0706   1.3000   1.8157   2.2460

          k = 0.1250 0.2165 0.0000 ( 37868 PWs)   bands (ev):

    -8.0676  -7.9346  -7.7103  -7.4024  -7.0121  -6.5322  -5.9687  -5.3283
    -4.6003  -3.8019  -2.9209  -1.9284  -1.1072   0.0310   1.1500   2.2961
     3.4508   4.5629   5.5310   6.2067   6.5798   6.6465

          k = 0.1250 0.2887 0.0000 ( 37976 PWs)   bands (ev):

    -7.4058  -7.2734  -7.0500  -6.7434  -6.3549  -5.8772  -5.3163  -4.6790
    -3.9547  -3.1608  -2.2853  -1.2982  -0.4901   0.6328   1.7231   2.8022
     3.7268   4.2260   4.5828   4.7046   4.9257   5.1737

          k = 0.1250 0.3608 0.0000 ( 38037 PWs)   bands (ev):

    -6.5593  -6.4277  -6.2056  -5.9008  -5.5147  -5.0401  -4.4829  -3.8502
    -3.1317  -2.3454  -1.4809  -0.5138   0.2822   1.3069   1.9704   2.1837
     2.4674   2.8211   3.0811   3.2767   3.7066   3.8111

          k = 0.1250 0.4330 0.0000 ( 38075 PWs)   bands (ev):

    -5.5317  -5.4010  -5.1806  -4.8784  -4.4956  -4.0252  -3.4737  -2.8487
    -2.1415  -1.3744  -0.5537   0.2063   0.2919   0.3916   0.6196   0.9684
     1.3628   1.6141   1.9068   2.3943   2.5693   2.9753

          k = 0.1250 0.5052 0.0000 ( 38106 PWs)   bands (ev):

    -4.3275  -4.1983  -3.9803  -3.6817  -3.3042  -2.8418  -2.3037  -1.7145
    -1.4097  -1.2834  -1.0954  -0.9943  -0.8061  -0.5426  -0.3137   0.1436
     0.6719   1.0296   1.3496   1.8247   2.0108   2.4920

          k = 0.1250 0.5774 0.0000 ( 38020 PWs)   bands (ev):

    -2.9557  -2.9535  -2.8299  -2.8273  -2.6200  -2.6171  -2.3683  -2.2711
    -1.9701  -1.9049  -1.5285  -1.4683  -1.0387  -0.9772  -0.5764  -0.1284
     0.4320   0.7633   1.2599   1.3528   2.0950   2.1268

          k = 0.1875 0.3248 0.0000 ( 38076 PWs)   bands (ev):

    -6.6531  -6.5214  -6.2991  -5.9942  -5.6078  -5.1328  -4.5751  -3.9418
    -3.2225  -2.4349  -1.5680  -0.5946   0.2037   1.2809   2.2695   3.0152
     3.3311   3.5065   3.6755   3.8630   4.0387   4.0915

          k = 0.1875 0.3969 0.0000 ( 38109 PWs)   bands (ev):

    -5.7179  -5.5871  -5.3664  -5.0636  -4.6801  -4.2088  -3.6559  -3.0288
    -2.3179  -1.5426  -0.6966   0.2229   0.9839   1.4666   1.5665   1.8034
     2.1269   2.4595   2.6786   2.8138   3.0064   3.0480

          k = 0.1875 0.4691 0.0000 ( 38095 PWs)   bands (ev):

    -4.6042  -4.4746  -4.2559  -3.9562  -3.5770  -3.1115  -2.5668  -1.9523
    -1.2643  -0.5499  -0.2211  -0.1338   0.0322   0.1621   0.3754   0.8031
     1.2846   1.6666   1.8663   2.1905   2.3559   2.5983

          k = 0.1875 0.5413 0.0000 ( 38067 PWs)   bands (ev):

    -3.3178  -3.1901  -2.9749  -2.6808  -2.3120  -1.8991  -1.8551  -1.7249
    -1.5198  -1.3055  -1.2358  -0.8903  -0.7395  -0.4956  -0.1855   0.2630
     0.8028   1.1274   1.5517   1.7283   2.1909   2.3708

          k = 0.2500 0.4330 0.0000 ( 38086 PWs)   bands (ev):

    -4.6966  -4.5668  -4.3480  -4.0479  -3.6682  -3.2019  -2.6558  -2.0384
    -1.3426  -0.5941   0.1906   0.8977   1.0728   1.0809   1.1644   1.1647
     1.2601   1.3994   1.6157   1.8670   2.1470   2.3963

          k = 0.2500 0.5052 0.0000 ( 38073 PWs)   bands (ev):

    -3.5002  -3.3720  -3.1560  -2.8600  -2.4866  -2.0297  -1.4997  -0.9220
    -0.6036  -0.4774  -0.2977  -0.2149  -0.0105   0.2395   0.4386   0.7850
     0.8668   0.9285   1.0921   1.2586   1.4058   1.6570

          k = 0.2500 0.5774 0.0000 ( 37950 PWs)   bands (ev):

    -2.1382  -2.1359  -2.0142  -2.0113  -1.8082  -1.8040  -1.5626  -1.4564
    -1.1649  -1.0947  -0.7332  -0.6675  -0.2582  -0.1870   0.1899   0.5905
     0.7141   0.8235   1.0303   1.1416   1.2887   1.5002

          k = 0.3125 0.5413 0.0000 ( 37986 PWs)   bands (ev):

    -2.2260  -2.1003  -1.8890  -1.6011  -1.2438  -0.8544  -0.8022  -0.7789
    -0.6755  -0.6382  -0.4725  -0.4324  -0.2502  -0.2141  -0.1253   0.1552
     0.2056   0.2695   0.5315   0.5697   0.7270   1.0726

     the Fermi energy is     2.0666 ev

!    total energy              =    -149.54059920 Ry
     Harris-Foulkes estimate   =    -149.54060261 Ry
     estimated scf accuracy    <       0.00000256 Ry

     The total energy is the sum of the following terms:

     one-electron contribution =   -2824.39849153 Ry
     hartree contribution      =    1422.24309762 Ry
     xc contribution           =    -120.27059053 Ry
     ewald contribution        =    1372.88411878 Ry
     smearing contrib. (-TS)   =       0.00126645 Ry

     convergence has been achieved in  27 iterations

     negative rho (up, down):  5.143E-06 0.000E+00

     Forces acting on atoms (cartesian axes, Ry/au):

     atom    1 type  1   force =     0.00000000    0.00000000    0.00258462
     atom    2 type  1   force =    -0.00000000   -0.00000000   -0.00399087
     atom    3 type  1   force =     0.00000000   -0.00000000   -0.00160450
     atom    4 type  1   force =     0.00000000   -0.00000000    0.00102080
     atom    5 type  1   force =    -0.00000000   -0.00000000    0.00054347
     atom    6 type  1   force =     0.00000000    0.00000000    0.00091862
     atom    7 type  1   force =     0.00000000    0.00000000   -0.00102313
     atom    8 type  1   force =    -0.00000000   -0.00000000   -0.00091782
     atom    9 type  1   force =     0.00000000    0.00000000   -0.00054726
     atom   10 type  1   force =     0.00000000    0.00000000   -0.00257479
     atom   11 type  1   force =    -0.00000000   -0.00000000    0.00160458
     atom   12 type  1   force =     0.00000000    0.00000000    0.00398627

     Total force =     0.007392     Total SCF correction =     0.002624
     SCF correction compared to forces is large: reduce conv_thr to get better values


     Computing stress (Cartesian axis) and pressure


     negative rho (up, down):  5.143E-06 0.000E+00
          total   stress  (Ry/bohr**3)                   (kbar)     P=   -2.41
  -0.00004540   0.00000000   0.00000000         -6.68      0.00      0.00
   0.00000000  -0.00004540  -0.00000000          0.00     -6.68     -0.00
   0.00000000   0.00000000   0.00004166          0.00      0.00      6.13


     BFGS Geometry Optimization

     number of scf cycles    =   1
     number of bfgs steps    =   0

     energy   new            =    -149.5405991992 Ry

     new trust radius        =       0.0039908669 bohr
     new conv_thr            =       0.0000120000 Ry


ATOMIC_POSITIONS (crystal)
Al       0.666666600   0.333333300   0.041691197
Al      -0.000000000  -0.000000000  -0.000037883
Al       0.333333300   0.666666600   0.083318094
Al       0.666666600   0.333333300   0.166676352
Al      -0.000000000  -0.000000000   0.125005159
Al       0.333333300   0.666666600   0.208342045
Al       0.666666600   0.333333300   0.291656951
Al      -0.000000000  -0.000000000   0.249991288
Al       0.333333300   0.666666600   0.333328130
Al       0.666666600   0.333333300   0.416642222
Al      -0.000000000  -0.000000000   0.375015231
Al       0.333333300   0.666666600   0.458371164



     Writing output data file Al_111_4_4.save/
     NEW-OLD atomic charge density approx. for the potential

     negative rho (up, down):  4.986E-06 0.000E+00

     total cpu time spent up to now is     3944.7 secs

     Self-consistent Calculation

     iteration #  1     ecut=    90.00 Ry     beta= 0.30
     Davidson diagonalization with overlap
     ethr =  1.00E-06,  avg # of iterations =  5.8

     negative rho (up, down):  2.078E-05 0.000E+00

     total cpu time spent up to now is     4152.4 secs

     total energy              =    -149.54069409 Ry
     Harris-Foulkes estimate   =    -149.54077073 Ry
     estimated scf accuracy    <       0.01076940 Ry

     iteration #  2     ecut=    90.00 Ry     beta= 0.30
     Davidson diagonalization with overlap
     ethr =  2.99E-05,  avg # of iterations =  1.0

     negative rho (up, down):  1.641E-04 0.000E+00

     total cpu time spent up to now is     4265.0 secs

     total energy              =    -149.54049523 Ry
     Harris-Foulkes estimate   =    -149.54070337 Ry
     estimated scf accuracy    <       0.00656043 Ry

     iteration #  3     ecut=    90.00 Ry     beta= 0.30
     Davidson diagonalization with overlap
     ethr =  1.82E-05,  avg # of iterations =  1.3

     negative rho (up, down):  1.496E-04 0.000E+00

     total cpu time spent up to now is     4381.0 secs

     total energy              =    -149.54064246 Ry
     Harris-Foulkes estimate   =    -149.54065818 Ry
     estimated scf accuracy    <       0.00117500 Ry

     iteration #  4     ecut=    90.00 Ry     beta= 0.30
     Davidson diagonalization with overlap
     ethr =  3.26E-06,  avg # of iterations =  1.5

     negative rho (up, down):  1.412E-04 0.000E+00

     total cpu time spent up to now is     4497.9 secs

     total energy              =    -149.54065092 Ry
     Harris-Foulkes estimate   =    -149.54065939 Ry
     estimated scf accuracy    <       0.00068104 Ry

     iteration #  5     ecut=    90.00 Ry     beta= 0.30
     Davidson diagonalization with overlap
     ethr =  1.89E-06,  avg # of iterations =  1.0

     negative rho (up, down):  1.548E-04 0.000E+00

     total cpu time spent up to now is     4612.8 secs

     total energy              =    -149.54063479 Ry
     Harris-Foulkes estimate   =    -149.54065335 Ry
     estimated scf accuracy    <       0.00033778 Ry

     iteration #  6     ecut=    90.00 Ry     beta= 0.30
     Davidson diagonalization with overlap
     ethr =  9.38E-07,  avg # of iterations =  1.9

     negative rho (up, down):  1.651E-04 0.000E+00

     total cpu time spent up to now is     4732.6 secs

     total energy              =    -149.54066536 Ry
     Harris-Foulkes estimate   =    -149.54066087 Ry
     estimated scf accuracy    <       0.00069673 Ry

     iteration #  7     ecut=    90.00 Ry     beta= 0.30
     Davidson diagonalization with overlap
     ethr =  9.38E-07,  avg # of iterations =  1.0

     negative rho (up, down):  1.605E-04 0.000E+00

     total cpu time spent up to now is     4845.6 secs

     total energy              =    -149.54066765 Ry
     Harris-Foulkes estimate   =    -149.54066633 Ry
     estimated scf accuracy    <       0.00096354 Ry

     iteration #  8     ecut=    90.00 Ry     beta= 0.30
     Davidson diagonalization with overlap
     ethr =  9.38E-07,  avg # of iterations =  1.0

     negative rho (up, down):  1.487E-04 0.000E+00

     total cpu time spent up to now is     4958.8 secs

     total energy              =    -149.54067227 Ry
     Harris-Foulkes estimate   =    -149.54066799 Ry
     estimated scf accuracy    <       0.00107516 Ry

     iteration #  9     ecut=    90.00 Ry     beta= 0.30
     Davidson diagonalization with overlap
     ethr =  9.38E-07,  avg # of iterations =  1.0

     negative rho (up, down):  1.244E-04 0.000E+00

     total cpu time spent up to now is     5074.1 secs

     total energy              =    -149.54068773 Ry
     Harris-Foulkes estimate   =    -149.54067292 Ry
     estimated scf accuracy    <       0.00139949 Ry

     iteration # 10     ecut=    90.00 Ry     beta= 0.30
     Davidson diagonalization with overlap
     ethr =  9.38E-07,  avg # of iterations =  1.0

     negative rho (up, down):  1.413E-04 0.000E+00

     total cpu time spent up to now is     5189.6 secs

     total energy              =    -149.54066865 Ry
     Harris-Foulkes estimate   =    -149.54069115 Ry
     estimated scf accuracy    <       0.00256658 Ry

     iteration # 11     ecut=    90.00 Ry     beta= 0.30
     Davidson diagonalization with overlap
     ethr =  9.38E-07,  avg # of iterations =  1.0

     negative rho (up, down):  2.097E-04 0.000E+00

     total cpu time spent up to now is     5305.1 secs

     total energy              =    -149.54062225 Ry
     Harris-Foulkes estimate   =    -149.54067151 Ry
     estimated scf accuracy    <       0.00156026 Ry

     iteration # 12     ecut=    90.00 Ry     beta= 0.30
     Davidson diagonalization with overlap
     ethr =  9.38E-07,  avg # of iterations =  2.1

     negative rho (up, down):  1.959E-04 0.000E+00

     total cpu time spent up to now is     5427.7 secs

     total energy              =    -149.54065225 Ry
     Harris-Foulkes estimate   =    -149.54065428 Ry
     estimated scf accuracy    <       0.00016589 Ry

     iteration # 13     ecut=    90.00 Ry     beta= 0.30
     Davidson diagonalization with overlap
     ethr =  4.61E-07,  avg # of iterations =  1.0

     negative rho (up, down):  1.534E-04 0.000E+00

     total cpu time spent up to now is     5542.8 secs

     total energy              =    -149.54064973 Ry
     Harris-Foulkes estimate   =    -149.54065294 Ry
     estimated scf accuracy    <       0.00008568 Ry

     iteration # 14     ecut=    90.00 Ry     beta= 0.30
     Davidson diagonalization with overlap
     ethr =  2.38E-07,  avg # of iterations =  1.8

     negative rho (up, down):  1.311E-04 0.000E+00

     total cpu time spent up to now is     5662.6 secs

     total energy              =    -149.54065190 Ry
     Harris-Foulkes estimate   =    -149.54065259 Ry
     estimated scf accuracy    <       0.00002530 Ry

     iteration # 15     ecut=    90.00 Ry     beta= 0.30
     Davidson diagonalization with overlap
     ethr =  7.03E-08,  avg # of iterations =  1.3

     negative rho (up, down):  5.127E-06 0.000E+00

     total cpu time spent up to now is     5775.3 secs

     End of self-consistent calculation

          k = 0.0000 0.0000 0.0000 ( 37897 PWs)   bands (ev):

    -9.2107  -9.0768  -8.8519  -8.5400  -8.1454  -7.6619  -7.0969  -6.4534
    -5.7204  -4.9147  -4.0273  -3.0335  -2.1794  -1.0363   0.0996   1.2719
     2.4655   3.6441   4.7279   5.5371   5.8747   6.1085

          k = 0.0000 0.0722 0.0000 ( 37802 PWs)   bands (ev):

    -9.1152  -8.9814  -8.7567  -8.4449  -8.0506  -7.5673  -7.0027  -6.3596
    -5.6270  -4.8218  -3.9348  -2.9409  -2.0900  -0.9467   0.1883   1.3594
     2.5516   3.7290   4.8129   5.6259   5.9700   6.2007

          k = 0.0000 0.1443 0.0000 ( 37826 PWs)   bands (ev):

    -8.8292  -8.6956  -8.4713  -8.1601  -7.7665  -7.2840  -6.7205  -6.0785
    -5.3473  -4.5435  -3.6580  -2.6639  -1.8222  -0.6787   0.4530   1.6199
     2.8068   3.9783   5.0597   5.8844   6.2541   6.4721

          k = 0.0000 0.2165 0.0000 ( 37846 PWs)   bands (ev):

    -8.3537  -8.2205  -7.9969  -7.6866  -7.2942  -6.8132  -6.2514  -5.6114
    -4.8825  -4.0814  -3.1988  -2.2053  -1.3771  -0.2357   0.8883   2.0437
     3.2120   4.3499   5.3651   6.0912   6.4100   6.5140

          k = 0.0000 0.2887 0.0000 ( 37974 PWs)   bands (ev):

    -7.6906  -7.5580  -7.3353  -7.0263  -6.6356  -6.1568  -5.5975  -4.9606
    -4.2353  -3.4383  -2.5607  -1.5713  -0.7581   0.3711   1.4699   2.5631
     3.4961   3.9933   4.3696   4.4710   4.6987   4.9930

          k = 0.0000 0.3608 0.0000 ( 38054 PWs)   bands (ev):

    -6.8425  -6.7106  -6.4892  -6.1820  -5.7937  -5.3178  -4.7621  -4.1296
    -3.4098  -2.6200  -1.7526  -0.7810   0.0180   1.0520   1.7109   1.9235
     2.2106   2.5728   2.8420   3.0321   3.4699   3.6345

          k = 0.0000 0.4330 0.0000 ( 38092 PWs)   bands (ev):

    -5.8128  -5.6819  -5.4621  -5.1574  -4.7722  -4.3005  -3.7502  -3.1251
    -2.4160  -1.6446  -0.8197  -0.0568   0.0237   0.1247   0.3561   0.7099
     1.1070   1.3466   1.6472   2.1372   2.3583   2.7295

          k = 0.0000 0.5052 0.0000 ( 38110 PWs)   bands (ev):

    -4.6061  -4.4766  -4.2592  -3.9579  -3.5779  -3.1138  -2.5762  -1.9854
    -1.6822  -1.5560  -1.3670  -1.2651  -1.0752  -0.8076  -0.5776  -0.1197
     0.4109   0.7687   1.0876   1.5927   1.7588   2.2499

          k = 0.0000-0.5774 0.0000 ( 38058 PWs)   bands (ev):

    -3.2312  -3.2288  -3.1050  -3.1022  -2.8949  -2.8920  -2.6390  -2.5460
    -2.2400  -2.1775  -1.7967  -1.7373  -1.3069  -1.2448  -0.8431  -0.3959
     0.1675   0.4973   1.0024   1.1005   1.8532   1.8963

          k = 0.0625 0.1083 0.0000 ( 37802 PWs)   bands (ev):

    -8.9245  -8.7908  -8.5663  -8.2550  -7.8611  -7.3784  -6.8145  -6.1721
    -5.4404  -4.6362  -3.7502  -2.7561  -1.9114  -0.7679   0.3650   1.5335
     2.7225   3.8965   4.9795   5.8005   6.1600   6.3835

          k = 0.0625 0.1804 0.0000 ( 37832 PWs)   bands (ev):

    -8.5437  -8.4104  -8.1864  -7.8758  -7.4829  -7.0014  -6.4388  -5.7981
    -5.0682  -4.2659  -3.3822  -2.3883  -1.5549  -0.4122   0.7155   1.8768
     3.0557   4.2161   5.2860   6.1165   6.5291   6.7217

          k = 0.0625 0.2526 0.0000 ( 37966 PWs)   bands (ev):

    -7.9744  -7.8416  -7.6184  -7.3089  -6.9175  -6.4377  -5.8773  -5.2391
    -4.5121  -3.7133  -2.8333  -1.8415  -1.0224   0.1144   1.2289   2.3668
     3.4956   4.5037   5.1448   5.4666   5.5406   5.7602

          k = 0.0625 0.3248 0.0000 ( 38038 PWs)   bands (ev):

    -7.2188  -7.0866  -6.8646  -6.5566  -6.1672  -5.6900  -5.1326  -4.4980
    -3.7755  -2.9821  -2.1092  -1.1261  -0.3208   0.7860   1.8266   2.6410
     2.9948   3.3268   3.6607   3.7240   4.0797   4.4097

          k = 0.0625 0.3969 0.0000 ( 38081 PWs)   bands (ev):

    -6.2799  -6.1485  -5.9280  -5.6221  -5.2354  -4.7617  -4.2086  -3.5797
    -2.8646  -2.0818  -1.2266  -0.2900   0.4780   0.9416   1.0491   1.2949
     1.6306   2.0018   2.2833   2.5640   3.0028   3.1353

          k = 0.0625 0.4691 0.0000 ( 38087 PWs)   bands (ev):

    -5.1615  -5.0314  -4.8128  -4.5097  -4.1270  -3.6586  -3.1130  -2.4954
    -1.8012  -1.0777  -0.7584  -0.6706  -0.5022  -0.3618  -0.1461   0.2910
     0.7901   1.2324   1.3640   1.7558   1.9487   2.6221

          k = 0.0625 0.5413 0.0000 ( 38045 PWs)   bands (ev):

    -3.8695  -3.7410  -3.5257  -3.2278  -2.8544  -2.4377  -2.3973  -2.2701
    -2.0648  -1.8456  -1.7765  -1.4258  -1.2722  -1.0251  -0.7099  -0.2591
     0.2918   0.6281   1.0667   1.2966   1.8126   2.2424

          k = 0.1250 0.2165 0.0000 ( 37868 PWs)   bands (ev):

    -8.0692  -7.9362  -7.7130  -7.4032  -7.0116  -6.5315  -5.9707  -5.3321
    -4.6046  -3.8051  -2.9244  -1.9320  -1.1108   0.0280   1.1463   2.2927
     3.4462   4.5573   5.5256   6.2012   6.5764   6.6451

          k = 0.1250 0.2887 0.0000 ( 37976 PWs)   bands (ev):

    -7.4073  -7.2750  -7.0527  -6.7443  -6.3544  -5.8765  -5.3183  -4.6828
    -3.9590  -3.1640  -2.2888  -1.3018  -0.4936   0.6297   1.7195   2.7988
     3.7234   4.2236   4.5806   4.7024   4.9245   5.1726

          k = 0.1250 0.3608 0.0000 ( 38037 PWs)   bands (ev):

    -6.5609  -6.4293  -6.2083  -5.9017  -5.5142  -5.0393  -4.4848  -3.8539
    -3.1360  -2.3486  -1.4844  -0.5173   0.2787   1.3040   1.9684   2.1815
     2.4646   2.8192   3.0795   3.2774   3.7069   3.8084

          k = 0.1250 0.4330 0.0000 ( 38075 PWs)   bands (ev):

    -5.5332  -5.4026  -5.1833  -4.8792  -4.4950  -4.0244  -3.4756  -2.8524
    -2.1458  -1.3776  -0.5570   0.2037   0.2903   0.3900   0.6172   0.9667
     1.3608   1.6124   1.9072   2.3924   2.5667   2.9717

          k = 0.1250 0.5052 0.0000 ( 38106 PWs)   bands (ev):

    -4.3291  -4.1999  -3.9830  -3.6826  -3.3037  -2.8410  -2.3055  -1.7178
    -1.4115  -1.2851  -1.0980  -0.9983  -0.8070  -0.5431  -0.3147   0.1426
     0.6694   1.0268   1.3460   1.8212   2.0066   2.4885

          k = 0.1250 0.5774 0.0000 ( 38020 PWs)   bands (ev):

    -2.9573  -2.9550  -2.8317  -2.8288  -2.6227  -2.6196  -2.3694  -2.2719
    -1.9692  -1.9044  -1.5281  -1.4671  -1.0414  -0.9781  -0.5801  -0.1325
     0.4271   0.7594   1.2571   1.3496   2.0918   2.1233

          k = 0.1875 0.3248 0.0000 ( 38076 PWs)   bands (ev):

    -6.6547  -6.5230  -6.3018  -5.9951  -5.6072  -5.1320  -4.5771  -3.9455
    -3.2268  -2.4381  -1.5715  -0.5982   0.2002   1.2779   2.2662   3.0126
     3.3290   3.5042   3.6735   3.8609   4.0363   4.0905

          k = 0.1875 0.3969 0.0000 ( 38109 PWs)   bands (ev):

    -5.7195  -5.5887  -5.3690  -5.0645  -4.6795  -4.2080  -3.6578  -3.0325
    -2.3221  -1.5457  -0.7000   0.2196   0.9808   1.4650   1.5647   1.8007
     2.1245   2.4581   2.6786   2.8121   3.0045   3.0483

          k = 0.1875 0.4691 0.0000 ( 38095 PWs)   bands (ev):

    -4.6058  -4.4762  -4.2586  -3.9571  -3.5764  -3.1107  -2.5687  -1.9560
    -1.2684  -0.5529  -0.2225  -0.1358   0.0296   0.1602   0.3742   0.8026
     1.2838   1.6645   1.8642   2.1876   2.3532   2.5963

          k = 0.1875 0.5413 0.0000 ( 38067 PWs)   bands (ev):

    -3.3193  -3.1917  -2.9776  -2.6817  -2.3114  -1.8995  -1.8559  -1.7261
    -1.5221  -1.3075  -1.2366  -0.8899  -0.7429  -0.4952  -0.1884   0.2600
     0.7988   1.1243   1.5479   1.7251   2.1879   2.3683

          k = 0.2500 0.4330 0.0000 ( 38086 PWs)   bands (ev):

    -4.6981  -4.5684  -4.3507  -4.0488  -3.6676  -3.2011  -2.6577  -2.0421
    -1.3467  -0.5972   0.1873   0.8951   1.0711   1.0795   1.1631   1.1632
     1.2576   1.3973   1.6141   1.8659   2.1471   2.3936

          k = 0.2500 0.5052 0.0000 ( 38073 PWs)   bands (ev):

    -3.5018  -3.3736  -3.1587  -2.8609  -2.4860  -2.0289  -1.5015  -0.9253
    -0.6054  -0.4790  -0.3003  -0.2188  -0.0114   0.2387   0.4378   0.7834
     0.8659   0.9269   1.0893   1.2571   1.4045   1.6555

          k = 0.2500 0.5774 0.0000 ( 37950 PWs)   bands (ev):

    -2.1398  -2.1374  -2.0159  -2.0127  -1.8109  -1.8065  -1.5638  -1.4573
    -1.1640  -1.0942  -0.7328  -0.6663  -0.2608  -0.1879   0.1863   0.5875
     0.7117   0.8220   1.0276   1.1370   1.2878   1.4956

          k = 0.3125 0.5413 0.0000 ( 37986 PWs)   bands (ev):

    -2.2276  -2.1019  -1.8916  -1.6020  -1.2433  -0.8546  -0.8039  -0.7802
    -0.6770  -0.6393  -0.4747  -0.4347  -0.2521  -0.2156  -0.1258   0.1564
     0.2051   0.2666   0.5323   0.5694   0.7253   1.0711

     the Fermi energy is     2.0640 ev

!    total energy              =    -149.54064671 Ry
     Harris-Foulkes estimate   =    -149.54065225 Ry
     estimated scf accuracy    <       0.00000538 Ry

     The total energy is the sum of the following terms:

     one-electron contribution =   -2824.00241426 Ry
     hartree contribution      =    1421.95936855 Ry
     xc contribution           =    -120.26953138 Ry
     ewald contribution        =    1372.77065835 Ry
     smearing contrib. (-TS)   =       0.00127203 Ry

     convergence has been achieved in  15 iterations

     negative rho (up, down):  5.127E-06 0.000E+00

     Forces acting on atoms (cartesian axes, Ry/au):

     atom    1 type  1   force =     0.00000000    0.00000000    0.00188903
     atom    2 type  1   force =     0.00000000    0.00000000   -0.00361202
     atom    3 type  1   force =     0.00000000    0.00000000   -0.00120387
     atom    4 type  1   force =     0.00000000    0.00000000    0.00099870
     atom    5 type  1   force =    -0.00000000   -0.00000000    0.00047857
     atom    6 type  1   force =     0.00000000    0.00000000    0.00080477
     atom    7 type  1   force =     0.00000000    0.00000000   -0.00099390
     atom    8 type  1   force =     0.00000000    0.00000000   -0.00080875
     atom    9 type  1   force =     0.00000000    0.00000000   -0.00048110
     atom   10 type  1   force =     0.00000000    0.00000000   -0.00188819
     atom   11 type  1   force =    -0.00000000   -0.00000000    0.00120478
     atom   12 type  1   force =     0.00000000    0.00000000    0.00361197

     Total force =     0.006315     Total SCF correction =     0.004541
     SCF correction compared to forces is large: reduce conv_thr to get better values


     Computing stress (Cartesian axis) and pressure


     negative rho (up, down):  5.127E-06 0.000E+00
          total   stress  (Ry/bohr**3)                   (kbar)     P=   -2.48
  -0.00004567   0.00000000   0.00000000         -6.72      0.00      0.00
   0.00000000  -0.00004567  -0.00000000          0.00     -6.72     -0.00
   0.00000000  -0.00000000   0.00004069          0.00     -0.00      5.99


     number of scf cycles    =   2
     number of bfgs steps    =   1

     energy   old            =    -149.5405991992 Ry
     energy   new            =    -149.5406467064 Ry

     CASE: energy  _new < energy  _old


     WARNING: bfgs curvature condition failed, Theta= 0.941
     new trust radius        =       0.0043899536 bohr
     new conv_thr            =       0.0000001200 Ry


ATOMIC_POSITIONS (crystal)
Al       0.666666600   0.333333300   0.041713518
Al      -0.000000000  -0.000000000  -0.000079554
Al       0.333333300   0.666666600   0.083303914
Al       0.666666600   0.333333300   0.166687786
Al      -0.000000000  -0.000000000   0.125010696
Al       0.333333300   0.666666600   0.208351361
Al       0.666666600   0.333333300   0.291645564
Al      -0.000000000  -0.000000000   0.249981932
Al       0.333333300   0.666666600   0.333322563
Al       0.666666600   0.333333300   0.416619919
Al      -0.000000000  -0.000000000   0.375029421
Al       0.333333300   0.666666600   0.458412830



     Writing output data file Al_111_4_4.save/
     NEW-OLD atomic charge density approx. for the potential

     negative rho (up, down):  4.957E-06 0.000E+00

     total cpu time spent up to now is     5847.3 secs

     Self-consistent Calculation

     iteration #  1     ecut=    90.00 Ry     beta= 0.30
     Davidson diagonalization with overlap
     ethr =  1.00E-06,  avg # of iterations =  5.0

     negative rho (up, down):  4.841E-08 0.000E+00

     total cpu time spent up to now is     6064.5 secs

     total energy              =    -149.54088724 Ry
     Harris-Foulkes estimate   =    -149.54121486 Ry
     estimated scf accuracy    <       0.05064843 Ry

     iteration #  2     ecut=    90.00 Ry     beta= 0.30
     Davidson diagonalization with overlap
     ethr =  1.41E-04,  avg # of iterations =  1.0

     total cpu time spent up to now is     6178.0 secs

     total energy              =    -149.54017911 Ry
     Harris-Foulkes estimate   =    -149.54092859 Ry
     estimated scf accuracy    <       0.02882468 Ry

     iteration #  3     ecut=    90.00 Ry     beta= 0.30
     Davidson diagonalization with overlap
     ethr =  8.01E-05,  avg # of iterations =  1.0

     total cpu time spent up to now is     6291.2 secs

     total energy              =    -149.54057366 Ry
     Harris-Foulkes estimate   =    -149.54057421 Ry
     estimated scf accuracy    <       0.00002086 Ry

     iteration #  4     ecut=    90.00 Ry     beta= 0.30
     Davidson diagonalization with overlap
     ethr =  5.79E-08,  avg # of iterations =  7.6

     total cpu time spent up to now is     6491.3 secs

     total energy              =    -149.54071004 Ry
     Harris-Foulkes estimate   =    -149.54075250 Ry
     estimated scf accuracy    <       0.00488589 Ry

     iteration #  5     ecut=    90.00 Ry     beta= 0.30
     Davidson diagonalization with overlap
     ethr =  5.79E-08,  avg # of iterations =  2.7

     total cpu time spent up to now is     6620.8 secs

     total energy              =    -149.54066392 Ry
     Harris-Foulkes estimate   =    -149.54071834 Ry
     estimated scf accuracy    <       0.00169461 Ry

     iteration #  6     ecut=    90.00 Ry     beta= 0.30
     Davidson diagonalization with overlap
     ethr =  5.79E-08,  avg # of iterations =  4.2

     total cpu time spent up to now is     6774.3 secs

     total energy              =    -149.54069919 Ry
     Harris-Foulkes estimate   =    -149.54069867 Ry
     estimated scf accuracy    <       0.00027877 Ry

     iteration #  7     ecut=    90.00 Ry     beta= 0.30
     Davidson diagonalization with overlap
     ethr =  5.79E-08,  avg # of iterations =  1.0

     total cpu time spent up to now is     6885.8 secs

     total energy              =    -149.54073528 Ry
     Harris-Foulkes estimate   =    -149.54069925 Ry
     estimated scf accuracy    <       0.00029517 Ry

     iteration #  8     ecut=    90.00 Ry     beta= 0.30
     Davidson diagonalization with overlap
     ethr =  5.79E-08,  avg # of iterations =  4.4

     total cpu time spent up to now is     7059.9 secs

     total energy              =    -149.54082014 Ry
     Harris-Foulkes estimate   =    -149.54082974 Ry
     estimated scf accuracy    <       0.01262266 Ry

     iteration #  9     ecut=    90.00 Ry     beta= 0.30
     Davidson diagonalization with overlap
     ethr =  5.79E-08,  avg # of iterations =  1.0

     total cpu time spent up to now is     7173.0 secs

     total energy              =    -149.54080247 Ry
     Harris-Foulkes estimate   =    -149.54082028 Ry
     estimated scf accuracy    <       0.01207569 Ry

     iteration # 10     ecut=    90.00 Ry     beta= 0.30
     Davidson diagonalization with overlap
     ethr =  5.79E-08,  avg # of iterations =  2.3

     total cpu time spent up to now is     7293.5 secs

     total energy              =    -149.54070026 Ry
     Harris-Foulkes estimate   =    -149.54080332 Ry
     estimated scf accuracy    <       0.01032807 Ry

     iteration # 11     ecut=    90.00 Ry     beta= 0.30
     Davidson diagonalization with overlap
     ethr =  5.79E-08,  avg # of iterations =  3.3

     total cpu time spent up to now is     7433.5 secs

     total energy              =    -149.54074011 Ry
     Harris-Foulkes estimate   =    -149.54072509 Ry
     estimated scf accuracy    <       0.00275942 Ry

     iteration # 12     ecut=    90.00 Ry     beta= 0.30
     Davidson diagonalization with overlap
     ethr =  5.79E-08,  avg # of iterations =  2.4

     negative rho (up, down):  6.612E-07 0.000E+00

     total cpu time spent up to now is     7562.0 secs

     total energy              =    -149.54065895 Ry
     Harris-Foulkes estimate   =    -149.54074198 Ry
     estimated scf accuracy    <       0.00429083 Ry

     iteration # 13     ecut=    90.00 Ry     beta= 0.30
     Davidson diagonalization with overlap
     ethr =  5.79E-08,  avg # of iterations =  4.1

     negative rho (up, down):  5.759E-07 0.000E+00

     total cpu time spent up to now is     7720.9 secs

     total energy              =    -149.54069750 Ry
     Harris-Foulkes estimate   =    -149.54069704 Ry
     estimated scf accuracy    <       0.00001831 Ry

     iteration # 14     ecut=    90.00 Ry     beta= 0.30
     Davidson diagonalization with overlap
     ethr =  5.09E-08,  avg # of iterations =  1.0

     negative rho (up, down):  1.195E-06 0.000E+00

     total cpu time spent up to now is     7837.6 secs

     total energy              =    -149.54069703 Ry
     Harris-Foulkes estimate   =    -149.54069767 Ry
     estimated scf accuracy    <       0.00004943 Ry

     iteration # 15     ecut=    90.00 Ry     beta= 0.30
     Davidson diagonalization with overlap
     ethr =  5.09E-08,  avg # of iterations =  1.0

     negative rho (up, down):  7.513E-06 0.000E+00

     total cpu time spent up to now is     7958.9 secs

     total energy              =    -149.54069709 Ry
     Harris-Foulkes estimate   =    -149.54069725 Ry
     estimated scf accuracy    <       0.00001320 Ry

     iteration # 16     ecut=    90.00 Ry     beta= 0.30
     Davidson diagonalization with overlap
     ethr =  3.67E-08,  avg # of iterations =  1.0

     negative rho (up, down):  6.055E-06 0.000E+00

     total cpu time spent up to now is     8077.3 secs

     total energy              =    -149.54069717 Ry
     Harris-Foulkes estimate   =    -149.54069718 Ry
     estimated scf accuracy    <       0.00000213 Ry

     iteration # 17     ecut=    90.00 Ry     beta= 0.30
     Davidson diagonalization with overlap
     ethr =  5.91E-09,  avg # of iterations =  2.8

     negative rho (up, down):  5.960E-06 0.000E+00

     total cpu time spent up to now is     8207.4 secs

     total energy              =    -149.54069729 Ry
     Harris-Foulkes estimate   =    -149.54069727 Ry
     estimated scf accuracy    <       0.00000023 Ry

     iteration # 18     ecut=    90.00 Ry     beta= 0.30
     Davidson diagonalization with overlap
     ethr =  6.44E-10,  avg # of iterations =  2.5

     negative rho (up, down):  6.158E-06 0.000E+00

     total cpu time spent up to now is     8336.8 secs

     total energy              =    -149.54069731 Ry
     Harris-Foulkes estimate   =    -149.54069730 Ry
     estimated scf accuracy    <       0.00000064 Ry

     iteration # 19     ecut=    90.00 Ry     beta= 0.30
     Davidson diagonalization with overlap
     ethr =  6.44E-10,  avg # of iterations =  1.4

     negative rho (up, down):  5.735E-06 0.000E+00

     total cpu time spent up to now is     8456.2 secs

     total energy              =    -149.54069731 Ry
     Harris-Foulkes estimate   =    -149.54069731 Ry
     estimated scf accuracy    <       0.00000167 Ry

     iteration # 20     ecut=    90.00 Ry     beta= 0.30
     Davidson diagonalization with overlap
     ethr =  6.44E-10,  avg # of iterations =  1.0

     negative rho (up, down):  1.030E-05 0.000E+00

     total cpu time spent up to now is     8574.1 secs

     total energy              =    -149.54069742 Ry
     Harris-Foulkes estimate   =    -149.54069731 Ry
     estimated scf accuracy    <       0.00000176 Ry

     iteration # 21     ecut=    90.00 Ry     beta= 0.30
     Davidson diagonalization with overlap
     ethr =  6.44E-10,  avg # of iterations =  3.1

     negative rho (up, down):  9.721E-06 0.000E+00

     total cpu time spent up to now is     8717.2 secs

     total energy              =    -149.54069741 Ry
     Harris-Foulkes estimate   =    -149.54069750 Ry
     estimated scf accuracy    <       0.00001674 Ry

     iteration # 22     ecut=    90.00 Ry     beta= 0.30
     Davidson diagonalization with overlap
     ethr =  6.44E-10,  avg # of iterations =  1.6

     negative rho (up, down):  9.612E-06 0.000E+00

     total cpu time spent up to now is     8835.5 secs

     total energy              =    -149.54069742 Ry
     Harris-Foulkes estimate   =    -149.54069742 Ry
     estimated scf accuracy    <       0.00001118 Ry

     iteration # 23     ecut=    90.00 Ry     beta= 0.30
     Davidson diagonalization with overlap
     ethr =  6.44E-10,  avg # of iterations =  1.0

     negative rho (up, down):  4.367E-06 0.000E+00

     total cpu time spent up to now is     8953.1 secs

     total energy              =    -149.54069726 Ry
     Harris-Foulkes estimate   =    -149.54069742 Ry
     estimated scf accuracy    <       0.00001128 Ry

     iteration # 24     ecut=    90.00 Ry     beta= 0.30
     Davidson diagonalization with overlap
     ethr =  6.44E-10,  avg # of iterations =  2.7

     negative rho (up, down):  1.065E-06 0.000E+00

     total cpu time spent up to now is     9088.9 secs

     total energy              =    -149.54069732 Ry
     Harris-Foulkes estimate   =    -149.54069732 Ry
     estimated scf accuracy    <       0.00000156 Ry

     iteration # 25     ecut=    90.00 Ry     beta= 0.30
     Davidson diagonalization with overlap
     ethr =  6.44E-10,  avg # of iterations =  1.5

     negative rho (up, down):  3.306E-07 0.000E+00

     total cpu time spent up to now is     9208.6 secs

     total energy              =    -149.54069732 Ry
     Harris-Foulkes estimate   =    -149.54069732 Ry
     estimated scf accuracy    <       0.00000037 Ry

     iteration # 26     ecut=    90.00 Ry     beta= 0.30
     Davidson diagonalization with overlap
     ethr =  6.44E-10,  avg # of iterations =  2.5

     negative rho (up, down):  5.110E-06 0.000E+00

     total cpu time spent up to now is     9327.8 secs

     End of self-consistent calculation

          k = 0.0000 0.0000 0.0000 ( 37897 PWs)   bands (ev):

    -9.2158  -9.0808  -8.8568  -8.5431  -8.1473  -7.6635  -7.1010  -6.4593
    -5.7270  -4.9202  -4.0333  -3.0392  -2.1850  -1.0417   0.0935   1.2661
     2.4584   3.6362   4.7212   5.5342   5.9013   6.1264

          k = 0.0000 0.0722 0.0000 ( 37802 PWs)   bands (ev):

    -9.1203  -8.9854  -8.7616  -8.4481  -8.0525  -7.5689  -7.0068  -6.3655
    -5.6336  -4.8272  -3.9408  -2.9466  -2.0957  -0.9520   0.1822   1.3536
     2.5446   3.7211   4.8061   5.6229   5.9961   6.2190

          k = 0.0000 0.1443 0.0000 ( 37826 PWs)   bands (ev):

    -8.8343  -8.6996  -8.4762  -8.1632  -7.7683  -7.2856  -6.7246  -6.0844
    -5.3538  -4.5490  -3.6641  -2.6697  -1.8279  -0.6841   0.4470   1.6141
     2.7998   3.9705   5.0530   5.8810   6.2781   6.4920

          k = 0.0000 0.2165 0.0000 ( 37846 PWs)   bands (ev):

    -8.3588  -8.2246  -8.0018  -7.6898  -7.2960  -6.8148  -6.2555  -5.6173
    -4.8890  -4.0868  -3.2048  -2.2110  -1.3828  -0.2411   0.8823   2.0379
     3.2051   4.3424   5.3587   6.0862   6.4053   6.5093

          k = 0.0000 0.2887 0.0000 ( 37974 PWs)   bands (ev):

    -7.6957  -7.5620  -7.3402  -7.0295  -6.6375  -6.1584  -5.6016  -4.9665
    -4.2418  -3.4438  -2.5667  -1.5770  -0.7637   0.3658   1.4639   2.5575
     3.4902   3.9885   4.3653   4.4654   4.6949   4.9907

          k = 0.0000 0.3608 0.0000 ( 38054 PWs)   bands (ev):

    -6.8476  -6.7147  -6.4941  -6.1852  -5.7955  -5.3193  -4.7661  -4.1354
    -3.4163  -2.6255  -1.7585  -0.7867   0.0125   1.0467   1.7058   1.9186
     2.2058   2.5690   2.8372   3.0304   3.4676   3.6295

          k = 0.0000 0.4330 0.0000 ( 38092 PWs)   bands (ev):

    -5.8179  -5.6859  -5.4670  -5.1605  -4.7741  -4.3020  -3.7542  -3.1309
    -2.4225  -1.6500  -0.8255  -0.0618   0.0182   0.1206   0.3517   0.7063
     1.1032   1.3427   1.6454   2.1331   2.3531   2.7236

          k = 0.0000 0.5052 0.0000 ( 38110 PWs)   bands (ev):

    -4.6112  -4.4806  -4.2641  -3.9611  -3.5798  -3.1153  -2.5802  -1.9909
    -1.6873  -1.5602  -1.3719  -1.2713  -1.0786  -0.8109  -0.5807  -0.1227
     0.4065   0.7634   1.0817   1.5871   1.7523   2.2444

          k = 0.0000-0.5774 0.0000 ( 38058 PWs)   bands (ev):

    -3.2364  -3.2339  -3.1092  -3.1061  -2.9001  -2.8967  -2.6425  -2.5490
    -2.2413  -2.1797  -1.7985  -1.7385  -1.3114  -1.2486  -0.8488  -0.4018
     0.1608   0.4910   0.9970   1.0951   1.8474   1.8903

          k = 0.0625 0.1083 0.0000 ( 37802 PWs)   bands (ev):

    -8.9296  -8.7948  -8.5712  -8.2581  -7.8630  -7.3800  -6.8186  -6.1780
    -5.4470  -4.6416  -3.7562  -2.7618  -1.9171  -0.7732   0.3589   1.5277
     2.7154   3.8886   4.9728   5.7973   6.1849   6.4026

          k = 0.0625 0.1804 0.0000 ( 37832 PWs)   bands (ev):

    -8.5488  -8.4144  -8.1913  -7.8790  -7.4848  -7.0029  -6.4429  -5.8039
    -5.0747  -4.2714  -3.3882  -2.3940  -1.5606  -0.4176   0.7095   1.8710
     3.0488   4.2084   5.2793   6.1127   6.5480   6.7453

          k = 0.0625 0.2526 0.0000 ( 37966 PWs)   bands (ev):

    -7.9796  -7.8456  -7.6233  -7.3121  -6.9193  -6.4393  -5.8814  -5.2450
    -4.5187  -3.7187  -2.8393  -1.8472  -1.0281   0.1091   1.2229   2.3611
     3.4889   4.4972   5.1398   5.4612   5.5351   5.7570

          k = 0.0625 0.3248 0.0000 ( 38038 PWs)   bands (ev):

    -7.2239  -7.0907  -6.8695  -6.5598  -6.1691  -5.6915  -5.1367  -4.5039
    -3.7820  -2.9876  -2.1152  -1.1318  -0.3264   0.7806   1.8208   2.6357
     2.9899   3.3224   3.6556   3.7209   4.0777   4.4049

          k = 0.0625 0.3969 0.0000 ( 38081 PWs)   bands (ev):

    -6.2850  -6.1526  -5.9329  -5.6253  -5.2372  -4.7632  -4.2127  -3.5855
    -2.8711  -2.0872  -1.2325  -0.2955   0.4727   0.9364   1.0448   1.2901
     1.6264   1.9991   2.2802   2.5617   2.9983   3.1301

          k = 0.0625 0.4691 0.0000 ( 38087 PWs)   bands (ev):

    -5.1667  -5.0354  -4.8177  -4.5129  -4.1288  -3.6601  -3.1170  -2.5012
    -1.8075  -1.0830  -0.7634  -0.6750  -0.5069  -0.3668  -0.1495   0.2884
     0.7875   1.2278   1.3593   1.7504   1.9427   2.6157

          k = 0.0625 0.5413 0.0000 ( 38045 PWs)   bands (ev):

    -3.8746  -3.7451  -3.5306  -3.2310  -2.8563  -2.4416  -2.4007  -2.2736
    -2.0693  -1.8498  -1.7797  -1.4277  -1.2779  -1.0275  -0.7149  -0.2641
     0.2859   0.6226   1.0603   1.2907   1.8072   2.2367

          k = 0.1250 0.2165 0.0000 ( 37868 PWs)   bands (ev):

    -8.0743  -7.9403  -7.7179  -7.4064  -7.0134  -6.5331  -5.9748  -5.3379
    -4.6111  -3.8106  -2.9304  -1.9377  -1.1164   0.0226   1.1402   2.2869
     3.4394   4.5500   5.5194   6.1959   6.5718   6.6404

          k = 0.1250 0.2887 0.0000 ( 37976 PWs)   bands (ev):

    -7.4125  -7.2790  -7.0576  -6.7475  -6.3562  -5.8781  -5.3224  -4.6886
    -3.9655  -3.1695  -2.2948  -1.3075  -0.4992   0.6244   1.7135   2.7932
     3.7175   4.2187   4.5764   4.6968   4.9210   5.1687

          k = 0.1250 0.3608 0.0000 ( 38037 PWs)   bands (ev):

    -6.5660  -6.4333  -6.2132  -5.9049  -5.5160  -5.0409  -4.4889  -3.8598
    -3.1425  -2.3541  -1.4903  -0.5230   0.2732   1.2988   1.9633   2.1767
     2.4598   2.8153   3.0750   3.2755   3.7048   3.8033

          k = 0.1250 0.4330 0.0000 ( 38075 PWs)   bands (ev):

    -5.5384  -5.4067  -5.1882  -4.8824  -4.4968  -4.0260  -3.4796  -2.8582
    -2.1522  -1.3830  -0.5628   0.1987   0.2848   0.3859   0.6128   0.9631
     1.3570   1.6085   1.9054   2.3883   2.5615   2.9659

          k = 0.1250 0.5052 0.0000 ( 38106 PWs)   bands (ev):

    -4.3342  -4.2039  -3.9879  -3.6857  -3.3055  -2.8425  -2.3095  -1.7234
    -1.4166  -1.2893  -1.1030  -1.0045  -0.8104  -0.5464  -0.3178   0.1397
     0.6650   1.0215   1.3402   1.8157   2.0001   2.4831

          k = 0.1250 0.5774 0.0000 ( 38020 PWs)   bands (ev):

    -2.9625  -2.9600  -2.8358  -2.8327  -2.6279  -2.6243  -2.3729  -2.2749
    -1.9704  -1.9066  -1.5298  -1.4684  -1.0458  -0.9820  -0.5858  -0.1384
     0.4204   0.7531   1.2517   1.3443   2.0860   2.1174

          k = 0.1875 0.3248 0.0000 ( 38076 PWs)   bands (ev):

    -6.6598  -6.5270  -6.3067  -5.9983  -5.6091  -5.1336  -4.5811  -3.9514
    -3.2333  -2.4435  -1.5775  -0.6038   0.1946   1.2726   2.2605   3.0073
     3.3238   3.4994   3.6694   3.8570   4.0310   4.0868

          k = 0.1875 0.3969 0.0000 ( 38109 PWs)   bands (ev):

    -5.7246  -5.5927  -5.3739  -5.0676  -4.6814  -4.2095  -3.6619  -3.0383
    -2.3286  -1.5511  -0.7059   0.2141   0.9755   1.4598   1.5604   1.7960
     2.1202   2.4544   2.6757   2.8072   3.0001   3.0462

          k = 0.1875 0.4691 0.0000 ( 38095 PWs)   bands (ev):

    -4.6109  -4.4802  -4.2635  -3.9603  -3.5782  -3.1122  -2.5727  -1.9617
    -1.2747  -0.5582  -0.2275  -0.1403   0.0249   0.1551   0.3709   0.8000
     1.2811   1.6602   1.8597   2.1826   2.3479   2.5913

          k = 0.1875 0.5413 0.0000 ( 38067 PWs)   bands (ev):

    -3.3245  -3.1957  -2.9825  -2.6849  -2.3133  -1.9032  -1.8595  -1.7295
    -1.5265  -1.3117  -1.2398  -0.8918  -0.7486  -0.4976  -0.1934   0.2551
     0.7930   1.1189   1.5417   1.7196   2.1827   2.3633

          k = 0.2500 0.4330 0.0000 ( 38086 PWs)   bands (ev):

    -4.7033  -4.5725  -4.3556  -4.0520  -3.6694  -3.2026  -2.6617  -2.0478
    -1.3531  -0.6025   0.1817   0.8900   1.0660   1.0743   1.1588   1.1589
     1.2531   1.3933   1.6105   1.8629   2.1455   2.3882

          k = 0.2500 0.5052 0.0000 ( 38073 PWs)   bands (ev):

    -3.5069  -3.3777  -3.1636  -2.8641  -2.4878  -2.0304  -1.5054  -0.9308
    -0.6105  -0.4832  -0.3054  -0.2248  -0.0148   0.2351   0.4348   0.7785
     0.8624   0.9229   1.0844   1.2528   1.4013   1.6522

          k = 0.2500 0.5774 0.0000 ( 37950 PWs)   bands (ev):

    -2.1450  -2.1424  -2.0201  -2.0166  -1.8161  -1.8111  -1.5673  -1.4602
    -1.1652  -1.0965  -0.7346  -0.6676  -0.2652  -0.1917   0.1807   0.5821
     0.7064   0.8180   1.0227   1.1304   1.2844   1.4887

          k = 0.3125 0.5413 0.0000 ( 37986 PWs)   bands (ev):

    -2.2327  -2.1060  -1.8966  -1.6052  -1.2453  -0.8577  -0.8091  -0.7845
    -0.6808  -0.6426  -0.4793  -0.4390  -0.2560  -0.2196  -0.1285   0.1553
     0.2020   0.2614   0.5304   0.5659   0.7216   1.0670

     the Fermi energy is     2.0591 ev

!    total energy              =    -149.54069730 Ry
     Harris-Foulkes estimate   =    -149.54069733 Ry
     estimated scf accuracy    <       0.00000004 Ry

     The total energy is the sum of the following terms:

     one-electron contribution =   -2823.85526407 Ry
     hartree contribution      =    1421.94676704 Ry
     xc contribution           =    -120.26861438 Ry
     ewald contribution        =    1372.63513917 Ry
     smearing contrib. (-TS)   =       0.00127494 Ry

     convergence has been achieved in  26 iterations

     negative rho (up, down):  5.110E-06 0.000E+00

     Forces acting on atoms (cartesian axes, Ry/au):

     atom    1 type  1   force =     0.00000000    0.00000000    0.00133578
     atom    2 type  1   force =    -0.00000000   -0.00000000   -0.00323520
     atom    3 type  1   force =     0.00000000    0.00000000   -0.00088898
     atom    4 type  1   force =     0.00000000    0.00000000    0.00094718
     atom    5 type  1   force =    -0.00000000   -0.00000000    0.00041857
     atom    6 type  1   force =     0.00000000    0.00000000    0.00073150
     atom    7 type  1   force =     0.00000000    0.00000000   -0.00094700
     atom    8 type  1   force =     0.00000000    0.00000000   -0.00073065
     atom    9 type  1   force =     0.00000000    0.00000000   -0.00041749
     atom   10 type  1   force =     0.00000000    0.00000000   -0.00133913
     atom   11 type  1   force =     0.00000000    0.00000000    0.00088869
     atom   12 type  1   force =     0.00000000    0.00000000    0.00323672

     Total force =     0.005414     Total SCF correction =     0.000379


     Computing stress (Cartesian axis) and pressure


     negative rho (up, down):  5.110E-06 0.000E+00
          total   stress  (Ry/bohr**3)                   (kbar)     P=   -2.55
  -0.00004589  -0.00000000   0.00000000         -6.75     -0.00      0.00
   0.00000000  -0.00004589   0.00000000          0.00     -6.75      0.00
   0.00000000  -0.00000000   0.00003987          0.00     -0.00      5.86


     number of scf cycles    =   3
     number of bfgs steps    =   2

     energy   old            =    -149.5406467064 Ry
     energy   new            =    -149.5406972959 Ry

     CASE: energy  _new < energy  _old

     new trust radius        =       0.0065849304 bohr
     new conv_thr            =       0.0000001200 Ry


ATOMIC_POSITIONS (crystal)
Al       0.666666600   0.333333300   0.041741695
Al      -0.000000000  -0.000000000  -0.000142046
Al       0.333333300   0.666666600   0.083285460
Al       0.666666600   0.333333300   0.166705713
Al      -0.000000000  -0.000000000   0.125018849
Al       0.333333300   0.666666600   0.208365509
Al       0.666666600   0.333333300   0.291627641
Al       0.000000000   0.000000000   0.249967793
Al       0.333333300   0.666666600   0.333314416
Al       0.666666600   0.333333300   0.416591712
Al      -0.000000000  -0.000000000   0.375047872
Al       0.333333300   0.666666600   0.458475337



     Writing output data file Al_111_4_4.save/
     NEW-OLD atomic charge density approx. for the potential

     negative rho (up, down):  4.897E-06 0.000E+00

     total cpu time spent up to now is     9400.1 secs

     Self-consistent Calculation

     iteration #  1     ecut=    90.00 Ry     beta= 0.30
     Davidson diagonalization with overlap
     ethr =  1.00E-06,  avg # of iterations =  2.0

     negative rho (up, down):  5.187E-06 0.000E+00

     total cpu time spent up to now is     9558.2 secs

     total energy              =    -149.54074972 Ry
     Harris-Foulkes estimate   =    -149.54075084 Ry
     estimated scf accuracy    <       0.00009141 Ry

     iteration #  2     ecut=    90.00 Ry     beta= 0.30
     Davidson diagonalization with overlap
     ethr =  2.54E-07,  avg # of iterations =  1.8

     negative rho (up, down):  1.047E-05 0.000E+00

     total cpu time spent up to now is     9688.9 secs

     total energy              =    -149.54074720 Ry
     Harris-Foulkes estimate   =    -149.54075248 Ry
     estimated scf accuracy    <       0.00007527 Ry

     iteration #  3     ecut=    90.00 Ry     beta= 0.30
     Davidson diagonalization with overlap
     ethr =  2.09E-07,  avg # of iterations =  1.4

     negative rho (up, down):  9.867E-06 0.000E+00

     total cpu time spent up to now is     9817.5 secs

     total energy              =    -149.54075021 Ry
     Harris-Foulkes estimate   =    -149.54075055 Ry
     estimated scf accuracy    <       0.00000679 Ry

     iteration #  4     ecut=    90.00 Ry     beta= 0.30
     Davidson diagonalization with overlap
     ethr =  1.88E-08,  avg # of iterations =  2.4

     negative rho (up, down):  9.854E-06 0.000E+00

     total cpu time spent up to now is     9947.8 secs

     total energy              =    -149.54075071 Ry
     Harris-Foulkes estimate   =    -149.54075071 Ry
     estimated scf accuracy    <       0.00000105 Ry

     iteration #  5     ecut=    90.00 Ry     beta= 0.30
     Davidson diagonalization with overlap
     ethr =  2.92E-09,  avg # of iterations =  2.3

     negative rho (up, down):  1.053E-05 0.000E+00

     total cpu time spent up to now is    10082.0 secs

     total energy              =    -149.54075074 Ry
     Harris-Foulkes estimate   =    -149.54075076 Ry
     estimated scf accuracy    <       0.00000233 Ry

     iteration #  6     ecut=    90.00 Ry     beta= 0.30
     Davidson diagonalization with overlap
     ethr =  2.92E-09,  avg # of iterations =  1.0

     negative rho (up, down):  1.490E-05 0.000E+00

     total cpu time spent up to now is    10207.2 secs

     total energy              =    -149.54075065 Ry
     Harris-Foulkes estimate   =    -149.54075075 Ry
     estimated scf accuracy    <       0.00000220 Ry

     iteration #  7     ecut=    90.00 Ry     beta= 0.30
     Davidson diagonalization with overlap
     ethr =  2.92E-09,  avg # of iterations =  2.3

     negative rho (up, down):  1.500E-05 0.000E+00

     total cpu time spent up to now is    10335.8 secs

     total energy              =    -149.54075073 Ry
     Harris-Foulkes estimate   =    -149.54075073 Ry
     estimated scf accuracy    <       0.00000077 Ry

     iteration #  8     ecut=    90.00 Ry     beta= 0.30
     Davidson diagonalization with overlap
     ethr =  2.13E-09,  avg # of iterations =  1.0

     negative rho (up, down):  1.503E-05 0.000E+00

     total cpu time spent up to now is    10457.3 secs

     total energy              =    -149.54075073 Ry
     Harris-Foulkes estimate   =    -149.54075073 Ry
     estimated scf accuracy    <       0.00000080 Ry

     iteration #  9     ecut=    90.00 Ry     beta= 0.30
     Davidson diagonalization with overlap
     ethr =  2.13E-09,  avg # of iterations =  1.0

     negative rho (up, down):  1.496E-05 0.000E+00

     total cpu time spent up to now is    10578.2 secs

     total energy              =    -149.54075073 Ry
     Harris-Foulkes estimate   =    -149.54075073 Ry
     estimated scf accuracy    <       0.00000082 Ry

     iteration # 10     ecut=    90.00 Ry     beta= 0.30
     Davidson diagonalization with overlap
     ethr =  2.13E-09,  avg # of iterations =  1.0

     negative rho (up, down):  1.606E-05 0.000E+00

     total cpu time spent up to now is    10694.9 secs

     total energy              =    -149.54075067 Ry
     Harris-Foulkes estimate   =    -149.54075073 Ry
     estimated scf accuracy    <       0.00000078 Ry

     iteration # 11     ecut=    90.00 Ry     beta= 0.30
     Davidson diagonalization with overlap
     ethr =  2.13E-09,  avg # of iterations =  2.5

     negative rho (up, down):  1.466E-05 0.000E+00

     total cpu time spent up to now is    10831.0 secs

     total energy              =    -149.54075070 Ry
     Harris-Foulkes estimate   =    -149.54075078 Ry
     estimated scf accuracy    <       0.00000194 Ry

     iteration # 12     ecut=    90.00 Ry     beta= 0.30
     Davidson diagonalization with overlap
     ethr =  2.13E-09,  avg # of iterations =  1.4

     negative rho (up, down):  1.421E-05 0.000E+00

     total cpu time spent up to now is    10949.9 secs

     total energy              =    -149.54075070 Ry
     Harris-Foulkes estimate   =    -149.54075072 Ry
     estimated scf accuracy    <       0.00000025 Ry

     iteration # 13     ecut=    90.00 Ry     beta= 0.30
     Davidson diagonalization with overlap
     ethr =  7.00E-10,  avg # of iterations =  2.3

     negative rho (up, down):  5.080E-06 0.000E+00

     total cpu time spent up to now is    11067.7 secs

     End of self-consistent calculation

          k = 0.0000 0.0000 0.0000 ( 37897 PWs)   bands (ev):

    -9.2126  -9.0763  -8.8535  -8.5375  -8.1400  -7.6559  -7.0968  -6.4576
    -5.7263  -4.9181  -4.0321  -3.0376  -2.1833  -1.0395   0.0945   1.2674
     2.4576   3.6340   4.7198   5.5351   5.9012   6.1273

          k = 0.0000 0.0722 0.0000 ( 37802 PWs)   bands (ev):

    -9.1171  -8.9810  -8.7583  -8.4424  -8.0452  -7.5613  -7.0026  -6.3638
    -5.6329  -4.8252  -3.9396  -2.9450  -2.0939  -0.9499   0.1832   1.3549
     2.5438   3.7189   4.8048   5.6238   5.9961   6.2199

          k = 0.0000 0.1443 0.0000 ( 37826 PWs)   bands (ev):

    -8.8311  -8.6952  -8.4729  -8.1576  -7.7610  -7.2781  -6.7203  -6.0827
    -5.3532  -4.5469  -3.6628  -2.6681  -1.8261  -0.6819   0.4480   1.6154
     2.7991   3.9684   5.0516   5.8819   6.2781   6.4928

          k = 0.0000 0.2165 0.0000 ( 37846 PWs)   bands (ev):

    -8.3557  -8.2201  -7.9985  -7.6841  -7.2887  -6.8072  -6.2512  -5.6156
    -4.8884  -4.0847  -3.2035  -2.2095  -1.3810  -0.2389   0.8834   2.0393
     3.2046   4.3408   5.3582   6.0873   6.4087   6.5114

          k = 0.0000 0.2887 0.0000 ( 37974 PWs)   bands (ev):

    -7.6926  -7.5576  -7.3369  -7.0239  -6.6302  -6.1508  -5.5973  -4.9647
    -4.2411  -3.4416  -2.5654  -1.5754  -0.7619   0.3681   1.4651   2.5590
     3.4917   3.9916   4.3689   4.4678   4.6997   4.9973

          k = 0.0000 0.3608 0.0000 ( 38054 PWs)   bands (ev):

    -6.8444  -6.7102  -6.4908  -6.1796  -5.7882  -5.3117  -4.7618  -4.1337
    -3.4156  -2.6233  -1.7572  -0.7850   0.0143   1.0492   1.7088   1.9219
     2.2090   2.5736   2.8407   3.0379   3.4742   3.6322

          k = 0.0000 0.4330 0.0000 ( 38092 PWs)   bands (ev):

    -5.8147  -5.6815  -5.4638  -5.1549  -4.7668  -4.2944  -3.7499  -3.1291
    -2.4217  -1.6478  -0.8239  -0.0589   0.0209   0.1250   0.3556   0.7110
     1.1074   1.3469   1.6527   2.1373   2.3557   2.7254

          k = 0.0000 0.5052 0.0000 ( 38110 PWs)   bands (ev):

    -4.6080  -4.4761  -4.2608  -3.9555  -3.5724  -3.1077  -2.5758  -1.9887
    -1.6842  -1.5558  -1.3688  -1.2700  -1.0732  -0.8055  -0.5753  -0.1172
     0.4101   0.7658   1.0835   1.5889   1.7530   2.2462

          k = 0.0000-0.5774 0.0000 ( 38058 PWs)   bands (ev):

    -3.2333  -3.2306  -3.1049  -3.1014  -2.8971  -2.8931  -2.6372  -2.5431
    -2.2332  -2.1728  -1.7911  -1.7306  -1.3077  -1.2439  -0.8468  -0.4004
     0.1610   0.4921   0.9995   1.0973   1.8490   1.8915

          k = 0.0625 0.1083 0.0000 ( 37802 PWs)   bands (ev):

    -8.9264  -8.7904  -8.5680  -8.2525  -7.8557  -7.3724  -6.8144  -6.1763
    -5.4464  -4.6396  -3.7550  -2.7603  -1.9154  -0.7710   0.3600   1.5290
     2.7147   3.8864   4.9714   5.7981   6.1848   6.4035

          k = 0.0625 0.1804 0.0000 ( 37832 PWs)   bands (ev):

    -8.5457  -8.4100  -8.1881  -7.8733  -7.4775  -6.9954  -6.4387  -5.8022
    -5.0741  -4.2693  -3.3869  -2.3924  -1.5588  -0.4153   0.7105   1.8723
     3.0481   4.2064   5.2781   6.1134   6.5483   6.7460

          k = 0.0625 0.2526 0.0000 ( 37966 PWs)   bands (ev):

    -7.9764  -7.8412  -7.6201  -7.3065  -6.9121  -6.4317  -5.8772  -5.2432
    -4.5180  -3.7166  -2.8380  -1.8456  -1.0263   0.1113   1.2240   2.3625
     3.4888   4.4973   5.1422   5.4639   5.5370   5.7624

          k = 0.0625 0.3248 0.0000 ( 38038 PWs)   bands (ev):

    -7.2208  -7.0862  -6.8662  -6.5542  -6.1618  -5.6839  -5.1324  -4.5021
    -3.7814  -2.9855  -2.1138  -1.1302  -0.3246   0.7829   1.8223   2.6381
     2.9930   3.3262   3.6584   3.7267   4.0848   4.4075

          k = 0.0625 0.3969 0.0000 ( 38081 PWs)   bands (ev):

    -6.2818  -6.1481  -5.9296  -5.6196  -5.2299  -4.7556  -4.2084  -3.5837
    -2.8703  -2.0850  -1.2311  -0.2937   0.4749   0.9395   1.0489   1.2933
     1.6303   2.0049   2.2858   2.5683   3.0017   3.1327

          k = 0.0625 0.4691 0.0000 ( 38087 PWs)   bands (ev):

    -5.1635  -5.0309  -4.8144  -4.5073  -4.1215  -3.6525  -3.1127  -2.4993
    -1.8066  -1.0806  -0.7600  -0.6712  -0.5034  -0.3637  -0.1443   0.2945
     0.7936   1.2310   1.3629   1.7525   1.9444   2.6165

          k = 0.0625 0.5413 0.0000 ( 38045 PWs)   bands (ev):

    -3.8714  -3.7406  -3.5273  -3.2253  -2.8490  -2.4370  -2.3952  -2.2685
    -2.0655  -1.8456  -1.7741  -1.4206  -1.2758  -1.0208  -0.7120  -0.2613
     0.2874   0.6248   1.0612   1.2922   1.8095   2.2383

          k = 0.1250 0.2165 0.0000 ( 37868 PWs)   bands (ev):

    -8.0711  -7.9358  -7.7146  -7.4008  -7.0061  -6.5255  -5.9706  -5.3362
    -4.6105  -3.8085  -2.9291  -1.9361  -1.1147   0.0248   1.1413   2.2883
     3.4390   4.5488   5.5195   6.1974   6.5745   6.6439

          k = 0.1250 0.2887 0.0000 ( 37976 PWs)   bands (ev):

    -7.4093  -7.2746  -7.0543  -6.7419  -6.3489  -5.8705  -5.3181  -4.6869
    -3.9649  -3.1674  -2.2935  -1.3059  -0.4975   0.6267   1.7148   2.7948
     3.7189   4.2218   4.5802   4.6993   4.9262   5.1730

          k = 0.1250 0.3608 0.0000 ( 38037 PWs)   bands (ev):

    -6.5628  -6.4289  -6.2099  -5.8993  -5.5087  -5.0332  -4.4846  -3.8580
    -3.1418  -2.3519  -1.4889  -0.5213   0.2751   1.3012   1.9663   2.1799
     2.4630   2.8197   3.0787   3.2828   3.7116   3.8058

          k = 0.1250 0.4330 0.0000 ( 38075 PWs)   bands (ev):

    -5.5352  -5.4022  -5.1850  -4.8768  -4.4895  -4.0183  -3.4753  -2.8563
    -2.1514  -1.3807  -0.5612   0.2015   0.2875   0.3903   0.6167   0.9679
     1.3613   1.6128   1.9126   2.3926   2.5641   2.9677

          k = 0.1250 0.5052 0.0000 ( 38106 PWs)   bands (ev):

    -4.3310  -4.1994  -3.9847  -3.6801  -3.2982  -2.8349  -2.3051  -1.7211
    -1.4135  -1.2850  -1.0998  -1.0032  -0.8050  -0.5411  -0.3123   0.1452
     0.6686   1.0240   1.3420   1.8176   2.0009   2.4851

          k = 0.1250 0.5774 0.0000 ( 38020 PWs)   bands (ev):

    -2.9594  -2.9567  -2.8316  -2.8280  -2.6250  -2.6206  -2.3676  -2.2690
    -1.9623  -1.8998  -1.5225  -1.4604  -1.0421  -0.9772  -0.5839  -0.1369
     0.4207   0.7542   1.2542   1.3466   2.0876   2.1188

          k = 0.1875 0.3248 0.0000 ( 38076 PWs)   bands (ev):

[...]

    -2.2240  -2.0686  -1.8690  -1.5653  -1.2044  -0.8355  -0.8006  -0.7624
    -0.6433  -0.6018  -0.4527  -0.4081  -0.2272  -0.1835  -0.0861   0.2040
     0.2317   0.2808   0.5639   0.5838   0.7492   1.0855

     the Fermi energy is     2.0667 ev

!    total energy              =    -149.54096048 Ry
     Harris-Foulkes estimate   =    -149.54096051 Ry
     estimated scf accuracy    <       0.00000003 Ry

     The total energy is the sum of the following terms:

     one-electron contribution =   -2815.55164246 Ry
     hartree contribution      =    1417.80266016 Ry
     xc contribution           =    -120.24927781 Ry
     ewald contribution        =    1368.45587598 Ry
     smearing contrib. (-TS)   =       0.00142366 Ry

     convergence has been achieved in  15 iterations

     negative rho (up, down):  4.706E-06 0.000E+00

     Forces acting on atoms (cartesian axes, Ry/au):

     atom    1 type  1   force =     0.00000000    0.00000000   -0.00177438
     atom    2 type  1   force =     0.00000000    0.00000000    0.00045266
     atom    3 type  1   force =     0.00000000    0.00000000   -0.00036464
     atom    4 type  1   force =     0.00000000    0.00000000   -0.00058091
     atom    5 type  1   force =     0.00000000    0.00000000    0.00031254
     atom    6 type  1   force =     0.00000000    0.00000000   -0.00037424
     atom    7 type  1   force =     0.00000000    0.00000000    0.00058403
     atom    8 type  1   force =     0.00000000    0.00000000    0.00036816
     atom    9 type  1   force =     0.00000000   -0.00000000   -0.00031045
     atom   10 type  1   force =     0.00000000    0.00000000    0.00177787
     atom   11 type  1   force =     0.00000000    0.00000000    0.00036948
     atom   12 type  1   force =     0.00000000   -0.00000000   -0.00046011

     Total force =     0.002854     Total SCF correction =     0.000205


     Computing stress (Cartesian axis) and pressure


     negative rho (up, down):  4.706E-06 0.000E+00
          total   stress  (Ry/bohr**3)                   (kbar)     P=   -3.76
  -0.00005013  -0.00000000   0.00000000         -7.37     -0.00      0.00
   0.00000000  -0.00005013   0.00000000          0.00     -7.37      0.00
   0.00000000  -0.00000000   0.00002366          0.00     -0.00      3.48


     number of scf cycles    =  10
     number of bfgs steps    =   9

     energy   old            =    -149.5409177573 Ry
     energy   new            =    -149.5409604780 Ry

     CASE: energy  _new < energy  _old

     new trust radius        =       0.0111252898 bohr
     new conv_thr            =       0.0000001200 Ry


ATOMIC_POSITIONS (crystal)
Al       0.666666600   0.333333300   0.041475275
Al      -0.000000000  -0.000000000  -0.000957374
Al       0.333333300   0.666666600   0.083265234
Al       0.666666600   0.333333300   0.166978337
Al      -0.000000000  -0.000000000   0.125137927
Al       0.333333300   0.666666600   0.208494607
Al       0.666666600   0.333333300   0.291354813
Al      -0.000000000  -0.000000000   0.249839006
Al       0.333333300   0.666666600   0.333195111
Al       0.666666600   0.333333300   0.416858039
Al      -0.000000000  -0.000000000   0.375067831
Al       0.333333300   0.666666600   0.459291144



     Writing output data file Al_111_4_4.save/
     NEW-OLD atomic charge density approx. for the potential

     negative rho (up, down):  4.474E-06 0.000E+00

     total cpu time spent up to now is    22884.2 secs

     Self-consistent Calculation

     iteration #  1     ecut=    90.00 Ry     beta= 0.30
     Davidson diagonalization with overlap
     ethr =  1.00E-06,  avg # of iterations =  3.1

     negative rho (up, down):  4.532E-06 0.000E+00

     total cpu time spent up to now is    23068.0 secs

     total energy              =    -149.54098009 Ry
     Harris-Foulkes estimate   =    -149.54098165 Ry
     estimated scf accuracy    <       0.00008703 Ry

     iteration #  2     ecut=    90.00 Ry     beta= 0.30
     Davidson diagonalization with overlap
     ethr =  2.42E-07,  avg # of iterations =  1.2

     negative rho (up, down):  6.337E-06 0.000E+00

     total cpu time spent up to now is    23188.5 secs

     total energy              =    -149.54097548 Ry
     Harris-Foulkes estimate   =    -149.54098177 Ry
     estimated scf accuracy    <       0.00006386 Ry

     iteration #  3     ecut=    90.00 Ry     beta= 0.30
     Davidson diagonalization with overlap
     ethr =  1.77E-07,  avg # of iterations =  1.8

     negative rho (up, down):  6.294E-06 0.000E+00

     total cpu time spent up to now is    23338.6 secs

     total energy              =    -149.54097925 Ry
     Harris-Foulkes estimate   =    -149.54097975 Ry
     estimated scf accuracy    <       0.00000459 Ry

     iteration #  4     ecut=    90.00 Ry     beta= 0.30
     Davidson diagonalization with overlap
     ethr =  1.28E-08,  avg # of iterations =  2.3

     negative rho (up, down):  6.478E-06 0.000E+00

     total cpu time spent up to now is    23474.9 secs

     total energy              =    -149.54097963 Ry
     Harris-Foulkes estimate   =    -149.54097965 Ry
     estimated scf accuracy    <       0.00000031 Ry

     iteration #  5     ecut=    90.00 Ry     beta= 0.30
     Davidson diagonalization with overlap
     ethr =  8.67E-10,  avg # of iterations =  3.7

     negative rho (up, down):  6.875E-06 0.000E+00

     total cpu time spent up to now is    23624.1 secs

     total energy              =    -149.54097966 Ry
     Harris-Foulkes estimate   =    -149.54097967 Ry
     estimated scf accuracy    <       0.00000019 Ry

     iteration #  6     ecut=    90.00 Ry     beta= 0.30
     Davidson diagonalization with overlap
     ethr =  5.20E-10,  avg # of iterations =  1.9

     negative rho (up, down):  8.375E-06 0.000E+00

     total cpu time spent up to now is    23750.6 secs

     total energy              =    -149.54097964 Ry
     Harris-Foulkes estimate   =    -149.54097967 Ry
     estimated scf accuracy    <       0.00000030 Ry

     iteration #  7     ecut=    90.00 Ry     beta= 0.30
     Davidson diagonalization with overlap
     ethr =  5.20E-10,  avg # of iterations =  2.1

     negative rho (up, down):  4.647E-06 0.000E+00

     total cpu time spent up to now is    23872.4 secs

     End of self-consistent calculation

          k = 0.0000 0.0000 0.0000 ( 37897 PWs)   bands (ev):

    -9.2048  -9.0367  -8.8222  -8.4989  -8.1051  -7.6293  -7.0733  -6.4438
    -5.7267  -4.9185  -4.0512  -3.0487  -2.1894  -1.0404   0.0700   1.2394
     2.4165   3.5909   4.6835   5.5115   5.8960   6.1170

          k = 0.0000 0.0722 0.0000 ( 37802 PWs)   bands (ev):

    -9.1094  -8.9414  -8.7269  -8.4039  -8.0102  -7.5347  -6.9790  -6.3500
    -5.6332  -4.8256  -3.9587  -2.9561  -2.1000  -0.9507   0.1588   1.3270
     2.5028   3.6759   4.7685   5.6001   5.9907   6.2098

          k = 0.0000 0.1443 0.0000 ( 37826 PWs)   bands (ev):

    -8.8234  -8.6556  -8.4415  -8.1190  -7.7260  -7.2514  -6.6967  -6.0688
    -5.3534  -4.5471  -3.6817  -2.6790  -1.8322  -0.6826   0.4238   1.5879
     2.7588   3.9261   5.0158   5.8580   6.2719   6.4840

          k = 0.0000 0.2165 0.0000 ( 37846 PWs)   bands (ev):

    -8.3479  -8.1805  -7.9671  -7.6455  -7.2537  -6.7805  -6.2274  -5.6015
    -4.8884  -4.0848  -3.2221  -2.2203  -1.3869  -0.2392   0.8599   2.0127
     3.1665   4.3027   5.3304   6.0784   6.4233   6.5199

          k = 0.0000 0.2887 0.0000 ( 37974 PWs)   bands (ev):

    -7.6848  -7.5180  -7.3055  -6.9852  -6.5951  -6.1239  -5.5734  -4.9504
    -4.2408  -3.4414  -2.5836  -1.5860  -0.7675   0.3683   1.4439   2.5379
     3.4799   4.0027   4.3917   4.4704   4.7324   5.0218

          k = 0.0000 0.3608 0.0000 ( 38054 PWs)   bands (ev):

    -6.8367  -6.6706  -6.4594  -6.1408  -5.7530  -5.2847  -4.7377  -4.1191
    -3.4149  -2.6225  -1.7746  -0.7945   0.0100   1.0517   1.7159   1.9421
     2.2368   2.6008   2.8475   3.0717   3.4916   3.6232

          k = 0.0000 0.4330 0.0000 ( 38092 PWs)   bands (ev):

    -5.8071  -5.6418  -5.4323  -5.1161  -4.7313  -4.2672  -3.7254  -3.1140
    -2.4204  -1.6459  -0.8377  -0.0520   0.0225   0.1628   0.3858   0.7375
     1.1244   1.3617   1.6767   2.1611   2.3590   2.7403

          k = 0.0000 0.5052 0.0000 ( 38110 PWs)   bands (ev):

    -4.6004  -4.4364  -4.2292  -3.9166  -3.5368  -3.0802  -2.5509  -1.9728
    -1.6741  -1.5168  -1.3470  -1.2571  -1.0377  -0.7816  -0.5563  -0.0997
     0.4217   0.7651   1.0972   1.5793   1.7534   2.2412

          k = 0.0000-0.5774 0.0000 ( 38058 PWs)   bands (ev):

    -3.2260  -3.2229  -3.0649  -3.0619  -2.8697  -2.8580  -2.5985  -2.5024
    -2.1918  -2.1421  -1.7634  -1.7029  -1.2796  -1.2249  -0.8291  -0.3886
     0.1631   0.4927   1.0033   1.0966   1.8329   1.8739

          k = 0.0625 0.1083 0.0000 ( 37802 PWs)   bands (ev):

    -8.9187  -8.7508  -8.5366  -8.2139  -7.8207  -7.3458  -6.7907  -6.1624
    -5.4466  -4.6399  -3.7739  -2.7712  -1.9214  -0.7718   0.3357   1.5013
     2.6741   3.8439   4.9353   5.7742   6.1790   6.3941

          k = 0.0625 0.1804 0.0000 ( 37832 PWs)   bands (ev):

    -8.5379  -8.3703  -8.1567  -7.8347  -7.4424  -6.9687  -6.4149  -5.7882
    -5.0741  -4.2695  -3.4056  -2.4033  -1.5648  -0.4158   0.6867   1.8453
     3.0087   4.1656   5.2437   6.0904   6.5409   6.7407

          k = 0.0625 0.2526 0.0000 ( 37966 PWs)   bands (ev):

    -7.9686  -7.8015  -7.5887  -7.2678  -6.8769  -6.4049  -5.8533  -5.2290
    -4.5178  -3.7165  -2.8564  -1.8564  -1.0321   0.1113   1.2014   2.3375
     3.4554   4.4750   5.1459   5.4712   5.5614   5.7913

          k = 0.0625 0.3248 0.0000 ( 38038 PWs)   bands (ev):

    -7.2131  -7.0465  -6.8348  -6.5155  -6.1266  -5.6570  -5.1083  -4.4877
    -3.7809  -2.9849  -2.1317  -1.1404  -0.3298   0.7837   1.8064   2.6376
     3.0093   3.3522   3.6615   3.7597   4.1172   4.3967

          k = 0.0625 0.3969 0.0000 ( 38081 PWs)   bands (ev):

    -6.2741  -6.1084  -5.8981  -5.5808  -5.1946  -4.7284  -4.1840  -3.5689
    -2.8694  -2.0838  -1.2476  -0.3011   0.4751   0.9452   1.0792   1.3202
     1.6599   2.0370   2.3063   2.5893   2.9992   3.1413

          k = 0.0625 0.4691 0.0000 ( 38087 PWs)   bands (ev):

    -5.1559  -4.9912  -4.7829  -4.4684  -4.0860  -3.6251  -3.0880  -2.4839
    -1.8043  -1.0758  -0.7524  -0.6370  -0.4702  -0.3612  -0.1158   0.3203
     0.8131   1.2307   1.3842   1.7483   1.9589   2.6178

          k = 0.0625 0.5413 0.0000 ( 38045 PWs)   bands (ev):

    -3.8639  -3.7009  -3.4957  -3.1864  -2.8135  -2.4262  -2.3688  -2.2296
    -2.0329  -1.8207  -1.7359  -1.3851  -1.2588  -0.9990  -0.6970  -0.2470
     0.2955   0.6315   1.0616   1.2771   1.8109   2.2284

          k = 0.1250 0.2165 0.0000 ( 37868 PWs)   bands (ev):

    -8.0634  -7.8962  -7.6832  -7.3622  -6.9710  -6.4987  -5.9467  -5.3220
    -4.6104  -3.8084  -2.9476  -1.9469  -1.1205   0.0247   1.1184   2.2625
     3.4026   4.5139   5.4970   6.1943   6.5958   6.6583

          k = 0.1250 0.2887 0.0000 ( 37976 PWs)   bands (ev):

    -7.4016  -7.2349  -7.0229  -6.7032  -6.3138  -5.8436  -5.2941  -4.6725
    -3.9645  -3.1669  -2.3115  -1.3163  -0.5029   0.6271   1.6944   2.7747
     3.7073   4.2325   4.6037   4.7066   4.9613   5.1807

          k = 0.1250 0.3608 0.0000 ( 38037 PWs)   bands (ev):

    -6.5551  -6.3892  -6.1784  -5.8605  -5.4734  -5.0062  -4.4603  -3.8433
    -3.1410  -2.3510  -1.5061  -0.5306   0.2710   1.3041   1.9731   2.1997
     2.4905   2.8461   3.0894   3.3156   3.7305   3.7987

          k = 0.1250 0.4330 0.0000 ( 38075 PWs)   bands (ev):

    -5.5275  -5.3625  -5.1535  -4.8379  -4.4541  -3.9910  -3.4507  -2.8412
    -2.1500  -1.3787  -0.5747   0.2082   0.2894   0.4279   0.6470   0.9946
     1.3792   1.6281   1.9367   2.4166   2.5675   2.9832

          k = 0.1250 0.5052 0.0000 ( 38106 PWs)   bands (ev):

    -4.3234  -4.1597  -3.9531  -3.6412  -3.2625  -2.8073  -2.2801  -1.7051
    -1.4033  -1.2460  -1.0787  -0.9895  -0.7695  -0.5173  -0.2929   0.1628
     0.6801   1.0242   1.3558   1.8095   2.0020   2.4816

          k = 0.1250 0.5774 0.0000 ( 38020 PWs)   bands (ev):

    -2.9522  -2.9490  -2.7916  -2.7885  -2.5978  -2.5854  -2.3289  -2.2282
    -1.9207  -1.8692  -1.4948  -1.4327  -1.0139  -0.9583  -0.5659  -0.1250
     0.4231   0.7552   1.2581   1.3467   2.0722   2.1034

          k = 0.1875 0.3248 0.0000 ( 38076 PWs)   bands (ev):

    -6.6489  -6.4829  -6.2720  -5.9539  -5.5665  -5.0989  -4.5526  -3.9349
    -3.2318  -2.4405  -1.5935  -0.6118   0.1919   1.2765   2.2502   3.0109
     3.3380   3.5252   3.7085   3.9003   4.0411   4.1279

          k = 0.1875 0.3969 0.0000 ( 38109 PWs)   bands (ev):

    -5.7138  -5.5486  -5.3392  -5.0232  -4.6386  -4.1747  -3.6330  -3.0214
    -2.3266  -1.5473  -0.7204   0.2094   0.9789   1.4690   1.5944   1.8272
     2.1525   2.4851   2.7066   2.8241   3.0310   3.0775

          k = 0.1875 0.4691 0.0000 ( 38095 PWs)   bands (ev):

    -4.6001  -4.4360  -4.2287  -3.9157  -3.5353  -3.0770  -2.5434  -1.9441
    -1.2711  -0.5506  -0.2166  -0.1022   0.0617   0.1596   0.4058   0.8323
     1.3063   1.6695   1.8847   2.1881   2.3655   2.6069

          k = 0.1875 0.5413 0.0000 ( 38067 PWs)   bands (ev):

    -3.3138  -3.1515  -2.9476  -2.6403  -2.2704  -1.8866  -1.8285  -1.6855
    -1.4898  -1.2826  -1.1960  -0.8492  -0.7290  -0.4693  -0.1750   0.2727
     0.8031   1.1290   1.5450   1.7129   2.1923   2.3748

          k = 0.2500 0.4330 0.0000 ( 38086 PWs)   bands (ev):

    -4.6925  -4.5283  -4.3208  -4.0074  -3.6265  -3.1675  -2.6325  -2.0303
    -1.3501  -0.5972   0.1725   0.8991   1.0757   1.0811   1.1887   1.2026
     1.2913   1.4352   1.6530   1.9039   2.1902   2.3932

          k = 0.2500 0.5052 0.0000 ( 38073 PWs)   bands (ev):

    -3.4962  -3.3334  -3.1286  -2.8195  -2.4447  -1.9950  -1.4757  -0.9118
    -0.5969  -0.4399  -0.2852  -0.2049   0.0265   0.2626   0.4618   0.7914
     0.8934   0.9569   1.1182   1.2735   1.4353   1.6811

          k = 0.2500 0.5774 0.0000 ( 37950 PWs)   bands (ev):

    -2.1348  -2.1314  -1.9758  -1.9725  -1.7864  -1.7718  -1.5231  -1.4131
    -1.1147  -1.0596  -0.6992  -0.6318  -0.2326  -0.1678   0.2018   0.5968
     0.7194   0.8619   1.0539   1.1378   1.3233   1.4931

          k = 0.3125 0.5413 0.0000 ( 37986 PWs)   bands (ev):

    -2.2221  -2.0617  -1.8616  -1.5607  -1.2026  -0.8344  -0.7985  -0.7596
    -0.6370  -0.5958  -0.4462  -0.4015  -0.2236  -0.1784  -0.0820   0.2053
     0.2350   0.2847   0.5635   0.5854   0.7519   1.0873

     the Fermi energy is     2.0685 ev

!    total energy              =    -149.54097963 Ry
     Harris-Foulkes estimate   =    -149.54097965 Ry
     estimated scf accuracy    <       0.00000004 Ry

     The total energy is the sum of the following terms:

     one-electron contribution =   -2814.02347476 Ry
     hartree contribution      =    1417.03476203 Ry
     xc contribution           =    -120.24713939 Ry
     ewald contribution        =    1367.69342534 Ry
     smearing contrib. (-TS)   =       0.00144716 Ry

     convergence has been achieved in   7 iterations

     negative rho (up, down):  4.647E-06 0.000E+00

     Forces acting on atoms (cartesian axes, Ry/au):

     atom    1 type  1   force =     0.00000000    0.00000000   -0.00099099
     atom    2 type  1   force =    -0.00000000   -0.00000000    0.00035158
     atom    3 type  1   force =     0.00000000    0.00000000   -0.00099161
     atom    4 type  1   force =     0.00000000    0.00000000   -0.00074732
     atom    5 type  1   force =     0.00000000    0.00000000    0.00030389
     atom    6 type  1   force =     0.00000000    0.00000000   -0.00031969
     atom    7 type  1   force =     0.00000000    0.00000000    0.00074776
     atom    8 type  1   force =     0.00000000    0.00000000    0.00031872
     atom    9 type  1   force =     0.00000000   -0.00000000   -0.00030188
     atom   10 type  1   force =     0.00000000    0.00000000    0.00099100
     atom   11 type  1   force =     0.00000000    0.00000000    0.00099162
     atom   12 type  1   force =     0.00000000    0.00000000   -0.00035308

     Total force =     0.002384     Total SCF correction =     0.000353
     SCF correction compared to forces is large: reduce conv_thr to get better values


     Computing stress (Cartesian axis) and pressure


     negative rho (up, down):  4.647E-06 0.000E+00
          total   stress  (Ry/bohr**3)                   (kbar)     P=   -3.89
  -0.00005067   0.00000000   0.00000000         -7.45      0.00      0.00
   0.00000000  -0.00005067   0.00000000          0.00     -7.45      0.00
   0.00000000   0.00000000   0.00002194          0.00      0.00      3.23


     bfgs converged in  11 scf cycles and  10 bfgs steps
     (criteria: energy <  1.0E-04 Ry, force <  1.0E-03 Ry/Bohr)

     End of BFGS Geometry Optimization

     Final energy   =    -149.5409796260 Ry
Begin final coordinates

ATOMIC_POSITIONS (crystal)
Al       0.666666600   0.333333300   0.041475275
Al      -0.000000000  -0.000000000  -0.000957374
Al       0.333333300   0.666666600   0.083265234
Al       0.666666600   0.333333300   0.166978337
Al      -0.000000000  -0.000000000   0.125137927
Al       0.333333300   0.666666600   0.208494607
Al       0.666666600   0.333333300   0.291354813
Al      -0.000000000  -0.000000000   0.249839006
Al       0.333333300   0.666666600   0.333195111
Al       0.666666600   0.333333300   0.416858039
Al      -0.000000000  -0.000000000   0.375067831
Al       0.333333300   0.666666600   0.459291144
End final coordinates



     Writing output data file Al_111_4_4.save/

     init_run     :    107.51s CPU    112.91s WALL (       1 calls)
     electrons    :  21795.53s CPU  23035.61s WALL (      11 calls)
     update_pot   :      6.81s CPU      6.98s WALL (      10 calls)
     forces       :    315.91s CPU    318.74s WALL (      11 calls)
     stress       :    464.97s CPU    467.21s WALL (      11 calls)

     Called by init_run:
     wfcinit      :    106.05s CPU    111.39s WALL (       1 calls)
     potinit      :      0.34s CPU      0.36s WALL (       1 calls)
     hinit0       :      0.86s CPU      0.87s WALL (       1 calls)

     Called by electrons:
     c_bands      :  18300.96s CPU  19305.57s WALL (     174 calls)
     sum_band     :   2361.32s CPU   2519.70s WALL (     174 calls)
     v_of_rho     :     38.09s CPU     40.18s WALL (     185 calls)
     newd         :     26.96s CPU     27.36s WALL (     185 calls)
     mix_rho      :   1070.71s CPU   1145.05s WALL (     174 calls)

     Called by c_bands:
     init_us_2    :    230.46s CPU    236.85s WALL (   11130 calls)
     cegterg      :  17918.85s CPU  18911.36s WALL (    5220 calls)

     Called by sum_band:
     sum_band:bec :      0.46s CPU      0.56s WALL (    5220 calls)
     addusdens    :     23.60s CPU     23.81s WALL (     174 calls)

     Called by *egterg:
     h_psi        :   9047.80s CPU   9807.05s WALL (   15992 calls)
     s_psi        :   2338.26s CPU   2353.43s WALL (   15992 calls)
     g_psi        :     79.06s CPU     84.34s WALL (   10742 calls)
     cdiaghg      :     30.09s CPU     35.95s WALL (   15662 calls)

     Called by h_psi:
     h_psi:pot    :   8983.06s CPU   9673.19s WALL (   15992 calls)
     h_psi:calbec :   2521.06s CPU   2538.65s WALL (   15992 calls)
     vloc_psi     :   4123.86s CPU   4783.12s WALL (   15992 calls)
     add_vuspsi   :   2335.88s CPU   2348.95s WALL (   15992 calls)

     General routines
     calbec       :   4005.28s CPU   4030.73s WALL (   22862 calls)
     fft          :     27.08s CPU     28.71s WALL (    2320 calls)
     ffts         :    702.25s CPU    749.66s WALL (   60013 calls)
     fftw         :   4017.88s CPU   4546.62s WALL (  628366 calls)

     Parallel routines

     PWSCF        :      6h18m CPU      6h39m WALL


   This run was terminated on:  14:27:38  29May2020            

=------------------------------------------------------------------------------=
   JOB DONE.
=------------------------------------------------------------------------------=
