--------------------------------------------------------------------------
[[18385,1],0]: A high-performance Open MPI point-to-point messaging module
was unable to find any relevant network interfaces:

Module: OpenFabrics (openib)
  Host: ubuntu

Another transport will be used instead, although this may result in
lower performance.
--------------------------------------------------------------------------

     Program PWSCF v.5.1 starts on 27May2020 at 19:53:17 

     This program is part of the open-source Quantum ESPRESSO suite
     for quantum simulation of materials; please cite
         "P. Giannozzi et al., J. Phys.:Condens. Matter 21 395502 (2009);
          URL http://www.quantum-espresso.org", 
     in publications or presentations arising from this work. More details at
     http://www.quantum-espresso.org/quote

     Parallel version (MPI), running on     1 processors
     Reading input from Al_100_bulk_12.pw.in

     Current dimensions of program PWSCF are:
     Max number of different atomic species (ntypx) = 10
     Max number of k-points (npk) =  40000
     Max angular momentum in pseudopotentials (lmaxx) =  3

     Subspace diagonalization in iterative solution of the eigenvalue problem:
     a serial algorithm will be used

     Found symmetry operation: I + ( -0.5000 -0.5000  0.0000)
     This is a supercell, fractional translations are disabled

     G-vector sticks info
     --------------------
     sticks:   dense  smooth     PW     G-vecs:    dense   smooth      PW
     Sum         681     553    177                81697    58655    9993



     bravais-lattice index     =            6
     lattice parameter (alat)  =       7.6050  a.u.
     unit-cell volume          =    2639.0578 (a.u.)^3
     number of atoms/cell      =            8
     number of atomic types    =            1
     number of electrons       =        24.00
     number of Kohn-Sham states=           16
     kinetic-energy cutoff     =      30.0000  Ry
     charge density cutoff     =     150.0000  Ry
     convergence threshold     =      1.0E-06
     mixing beta               =       0.3000
     number of iterations used =            8  local-TF  mixing
     Exchange-correlation      =  SLA  PW   PBE  PBE ( 1  4  3  4 0)
     nstep                     =           50


     celldm(1)=   7.605000  celldm(2)=   0.000000  celldm(3)=   6.000000
     celldm(4)=   0.000000  celldm(5)=   0.000000  celldm(6)=   0.000000

     crystal axes: (cart. coord. in units of alat)
               a(1) = (   1.000000   0.000000   0.000000 )  
               a(2) = (   0.000000   1.000000   0.000000 )  
               a(3) = (   0.000000   0.000000   6.000000 )  

     reciprocal axes: (cart. coord. in units 2 pi/alat)
               b(1) = (  1.000000  0.000000  0.000000 )  
               b(2) = (  0.000000  1.000000  0.000000 )  
               b(3) = (  0.000000  0.000000  0.166667 )  


     PseudoPot. # 1 for Al read from file:
     ./Al.pbe-n-van.UPF
     MD5 check sum: b11ded24487aef5bc42d5c7a2e22a7b6
     Pseudo is Ultrasoft + core correction, Zval =  3.0
     Generated by new atomic code, or converted to UPF format
     Using radial grid of  893 points,  2 beta functions with: 
                l(1) =   0
                l(2) =   1
     Q(r) pseudized with  8 coefficients,  rinner =    0.900   0.900   0.900


     atomic species   valence    mass     pseudopotential
        Al             3.00    26.98000     Al( 1.00)

      8 Sym. Ops. (no inversion) found



   Cartesian axes

     site n.     atom                  positions (alat units)
         1           Al  tau(   1) = (   0.0000000   0.0000000   0.0000000  )
         2           Al  tau(   2) = (   0.5000000   0.5000000   0.0000000  )
         3           Al  tau(   3) = (   0.5000000   0.0000000   0.5000000  )
         4           Al  tau(   4) = (   0.0000000   0.5000000   0.5000000  )
         5           Al  tau(   5) = (   0.0000000   0.0000000   1.0000000  )
         6           Al  tau(   6) = (   0.5000000   0.5000000   1.0000000  )
         7           Al  tau(   7) = (   0.5000000   0.0000000   1.5000000  )
         8           Al  tau(   8) = (   0.0000000   0.5000000   1.5000000  )

     number of k points=    45  Marzari-Vanderbilt smearing, width (Ry)=  0.0250
                       cart. coord. in units 2pi/alat
        k(    1) = (   0.0000000   0.0000000   0.0000000), wk =   0.0078125
        k(    2) = (   0.0000000   0.0625000   0.0000000), wk =   0.0312500
        k(    3) = (   0.0000000   0.1250000   0.0000000), wk =   0.0312500
        k(    4) = (   0.0000000   0.1875000   0.0000000), wk =   0.0312500
        k(    5) = (   0.0000000   0.2500000   0.0000000), wk =   0.0312500
        k(    6) = (   0.0000000   0.3125000   0.0000000), wk =   0.0312500
        k(    7) = (   0.0000000   0.3750000   0.0000000), wk =   0.0312500
        k(    8) = (   0.0000000   0.4375000   0.0000000), wk =   0.0312500
        k(    9) = (   0.0000000  -0.5000000   0.0000000), wk =   0.0156250
        k(   10) = (   0.0625000   0.0625000   0.0000000), wk =   0.0312500
        k(   11) = (   0.0625000   0.1250000   0.0000000), wk =   0.0625000
        k(   12) = (   0.0625000   0.1875000   0.0000000), wk =   0.0625000
        k(   13) = (   0.0625000   0.2500000   0.0000000), wk =   0.0625000
        k(   14) = (   0.0625000   0.3125000   0.0000000), wk =   0.0625000
        k(   15) = (   0.0625000   0.3750000   0.0000000), wk =   0.0625000
        k(   16) = (   0.0625000   0.4375000   0.0000000), wk =   0.0625000
        k(   17) = (   0.0625000  -0.5000000   0.0000000), wk =   0.0312500
        k(   18) = (   0.1250000   0.1250000   0.0000000), wk =   0.0312500
        k(   19) = (   0.1250000   0.1875000   0.0000000), wk =   0.0625000
        k(   20) = (   0.1250000   0.2500000   0.0000000), wk =   0.0625000
        k(   21) = (   0.1250000   0.3125000   0.0000000), wk =   0.0625000
        k(   22) = (   0.1250000   0.3750000   0.0000000), wk =   0.0625000
        k(   23) = (   0.1250000   0.4375000   0.0000000), wk =   0.0625000
        k(   24) = (   0.1250000  -0.5000000   0.0000000), wk =   0.0312500
        k(   25) = (   0.1875000   0.1875000   0.0000000), wk =   0.0312500
        k(   26) = (   0.1875000   0.2500000   0.0000000), wk =   0.0625000
        k(   27) = (   0.1875000   0.3125000   0.0000000), wk =   0.0625000
        k(   28) = (   0.1875000   0.3750000   0.0000000), wk =   0.0625000
        k(   29) = (   0.1875000   0.4375000   0.0000000), wk =   0.0625000
        k(   30) = (   0.1875000  -0.5000000   0.0000000), wk =   0.0312500
        k(   31) = (   0.2500000   0.2500000   0.0000000), wk =   0.0312500
        k(   32) = (   0.2500000   0.3125000   0.0000000), wk =   0.0625000
        k(   33) = (   0.2500000   0.3750000   0.0000000), wk =   0.0625000
        k(   34) = (   0.2500000   0.4375000   0.0000000), wk =   0.0625000
        k(   35) = (   0.2500000  -0.5000000   0.0000000), wk =   0.0312500
        k(   36) = (   0.3125000   0.3125000   0.0000000), wk =   0.0312500
        k(   37) = (   0.3125000   0.3750000   0.0000000), wk =   0.0625000
        k(   38) = (   0.3125000   0.4375000   0.0000000), wk =   0.0625000
        k(   39) = (   0.3125000  -0.5000000   0.0000000), wk =   0.0312500
        k(   40) = (   0.3750000   0.3750000   0.0000000), wk =   0.0312500
        k(   41) = (   0.3750000   0.4375000   0.0000000), wk =   0.0625000
        k(   42) = (   0.3750000  -0.5000000   0.0000000), wk =   0.0312500
        k(   43) = (   0.4375000   0.4375000   0.0000000), wk =   0.0312500
        k(   44) = (   0.4375000  -0.5000000   0.0000000), wk =   0.0312500
        k(   45) = (  -0.5000000  -0.5000000   0.0000000), wk =   0.0078125

     Dense  grid:    81697 G-vectors     FFT dimensions: (  30,  30, 180)

     Smooth grid:    58655 G-vectors     FFT dimensions: (  27,  27, 160)

     Largest allocated arrays     est. size (Mb)     dimensions
        Kohn-Sham Wavefunctions         1.80 Mb     (    7372,   16)
        NL pseudopotentials             3.60 Mb     (    7372,   32)
        Each V/rho on FFT grid          2.47 Mb     (  162000)
        Each G-vector array             0.62 Mb     (   81697)
        G-vector shells                 0.01 Mb     (    1599)
     Largest temporary arrays     est. size (Mb)     dimensions
        Auxiliary wavefunctions         7.20 Mb     (    7372,   64)
        Each subspace H/S matrix        0.06 Mb     (      64,   64)
        Each <psi_i|beta_j> matrix      0.01 Mb     (      32,   16)
        Arrays for rho mixing          19.78 Mb     (  162000,    8)

     Initial potential from superposition of free atoms

     starting charge   23.98028, renormalised to   24.00000

     negative rho (up, down):  4.196E-05 0.000E+00
     Starting wfc are   32 randomized atomic wfcs

     total cpu time spent up to now is       14.6 secs

     per-process dynamical memory:   127.6 Mb

     Self-consistent Calculation

     iteration #  1     ecut=    30.00 Ry     beta=0.30
     Davidson diagonalization with overlap
     ethr =  1.00E-02,  avg # of iterations =  2.9

     negative rho (up, down):  2.871E-08 0.000E+00

     total cpu time spent up to now is       41.4 secs

     total energy              =     -99.63443151 Ry
     Harris-Foulkes estimate   =     -99.66822888 Ry
     estimated scf accuracy    <       0.56916568 Ry

     iteration #  2     ecut=    30.00 Ry     beta=0.30
     Davidson diagonalization with overlap
     ethr =  2.37E-03,  avg # of iterations =  1.0

     negative rho (up, down):  5.075E-05 0.000E+00

     total cpu time spent up to now is       58.3 secs

     total energy              =     -99.50944567 Ry
     Harris-Foulkes estimate   =     -99.64058251 Ry
     estimated scf accuracy    <       0.42741418 Ry

     iteration #  3     ecut=    30.00 Ry     beta=0.30
     Davidson diagonalization with overlap
     ethr =  1.78E-03,  avg # of iterations =  2.3

     total cpu time spent up to now is       77.5 secs

     total energy              =     -99.56763581 Ry
     Harris-Foulkes estimate   =     -99.60539318 Ry
     estimated scf accuracy    <       0.17443946 Ry

     iteration #  4     ecut=    30.00 Ry     beta=0.30
     Davidson diagonalization with overlap
     ethr =  7.27E-04,  avg # of iterations =  2.0

     total cpu time spent up to now is       94.6 secs

     total energy              =     -99.58143808 Ry
     Harris-Foulkes estimate   =     -99.58450921 Ry
     estimated scf accuracy    <       0.01437350 Ry

     iteration #  5     ecut=    30.00 Ry     beta=0.30
     Davidson diagonalization with overlap
     ethr =  5.99E-05,  avg # of iterations =  3.3

     total cpu time spent up to now is      114.6 secs

     total energy              =     -99.58233949 Ry
     Harris-Foulkes estimate   =     -99.58314692 Ry
     estimated scf accuracy    <       0.01266124 Ry

     iteration #  6     ecut=    30.00 Ry     beta=0.30
     Davidson diagonalization with overlap
     ethr =  5.28E-05,  avg # of iterations =  2.2

     total cpu time spent up to now is      133.4 secs

     total energy              =     -99.57290334 Ry
     Harris-Foulkes estimate   =     -99.58483872 Ry
     estimated scf accuracy    <       0.05503495 Ry

     iteration #  7     ecut=    30.00 Ry     beta=0.30
     Davidson diagonalization with overlap
     ethr =  5.28E-05,  avg # of iterations =  2.8

     negative rho (up, down):  4.385E-03 0.000E+00

     total cpu time spent up to now is      153.9 secs

     total energy              =     -99.58237685 Ry
     Harris-Foulkes estimate   =     -99.58187459 Ry
     estimated scf accuracy    <       0.01160229 Ry

     iteration #  8     ecut=    30.00 Ry     beta=0.30
     Davidson diagonalization with overlap
     ethr =  4.83E-05,  avg # of iterations =  1.7

     negative rho (up, down):  1.000E-02 0.000E+00

     total cpu time spent up to now is      170.9 secs

     total energy              =     -99.57901743 Ry
     Harris-Foulkes estimate   =     -99.58300713 Ry
     estimated scf accuracy    <       0.02859144 Ry

     iteration #  9     ecut=    30.00 Ry     beta=0.30
     Davidson diagonalization with overlap
     ethr =  4.83E-05,  avg # of iterations =  1.5

     negative rho (up, down):  9.306E-03 0.000E+00

     total cpu time spent up to now is      188.1 secs

     total energy              =     -99.57763905 Ry
     Harris-Foulkes estimate   =     -99.57997898 Ry
     estimated scf accuracy    <       0.00687448 Ry

     iteration # 10     ecut=    30.00 Ry     beta=0.30
     Davidson diagonalization with overlap
     ethr =  2.86E-05,  avg # of iterations =  2.4

     negative rho (up, down):  4.935E-03 0.000E+00

     total cpu time spent up to now is      211.5 secs

     total energy              =     -99.57865971 Ry
     Harris-Foulkes estimate   =     -99.58055198 Ry
     estimated scf accuracy    <       0.01029900 Ry

     iteration # 11     ecut=    30.00 Ry     beta=0.30
     Davidson diagonalization with overlap
     ethr =  2.86E-05,  avg # of iterations =  2.0

     negative rho (up, down):  3.337E-03 0.000E+00

     total cpu time spent up to now is      231.5 secs

     total energy              =     -99.57959940 Ry
     Harris-Foulkes estimate   =     -99.57961065 Ry
     estimated scf accuracy    <       0.00004093 Ry

     iteration # 12     ecut=    30.00 Ry     beta=0.30
     Davidson diagonalization with overlap
     ethr =  1.71E-07,  avg # of iterations =  3.2

     negative rho (up, down):  4.826E-04 0.000E+00

     total cpu time spent up to now is      254.0 secs

     total energy              =     -99.57960223 Ry
     Harris-Foulkes estimate   =     -99.57961599 Ry
     estimated scf accuracy    <       0.00003721 Ry

     iteration # 13     ecut=    30.00 Ry     beta=0.30
     Davidson diagonalization with overlap
     ethr =  1.55E-07,  avg # of iterations =  1.0

     negative rho (up, down):  7.872E-05 0.000E+00

     total cpu time spent up to now is      271.8 secs

     total energy              =     -99.57959791 Ry
     Harris-Foulkes estimate   =     -99.57960287 Ry
     estimated scf accuracy    <       0.00002954 Ry

     iteration # 14     ecut=    30.00 Ry     beta=0.30
     Davidson diagonalization with overlap
     ethr =  1.23E-07,  avg # of iterations =  1.0

     negative rho (up, down):  2.883E-05 0.000E+00

     total cpu time spent up to now is      290.4 secs

     total energy              =     -99.57959885 Ry
     Harris-Foulkes estimate   =     -99.57959947 Ry
     estimated scf accuracy    <       0.00000268 Ry

     iteration # 15     ecut=    30.00 Ry     beta=0.30
     Davidson diagonalization with overlap
     ethr =  1.12E-08,  avg # of iterations =  3.0

     negative rho (up, down):  1.241E-05 0.000E+00

     total cpu time spent up to now is      312.9 secs

     total energy              =     -99.57959951 Ry
     Harris-Foulkes estimate   =     -99.57959981 Ry
     estimated scf accuracy    <       0.00000217 Ry

     iteration # 16     ecut=    30.00 Ry     beta=0.30
     Davidson diagonalization with overlap
     ethr =  9.03E-09,  avg # of iterations =  2.0

     total cpu time spent up to now is      331.5 secs

     End of self-consistent calculation

          k = 0.0000 0.0000 0.0000 (  7343 PWs)   bands (ev):

   -10.9156  -9.5168  -7.3274  -4.4566  -2.6607  -2.6607  -2.1288  -1.3707
    -1.3707  -1.2873  -1.2873   0.1536   0.1536   0.6769   0.6769   1.3471

          k = 0.0000 0.0625 0.0000 (  7359 PWs)   bands (ev):

   -10.8800  -9.4814  -7.2925  -4.4222  -3.2252  -2.6279  -2.0958  -1.9176
    -1.3377  -1.2271  -0.6747   0.1178   0.2527   0.7097   0.7321   1.3795

          k = 0.0000 0.1250 0.0000 (  7353 PWs)   bands (ev):

   -10.7729  -9.3752  -7.1874  -4.3179  -4.1246  -2.7918  -2.5293  -1.9962
    -1.2391  -1.1224  -0.6987   0.1739   0.5485   0.8079   1.4760   1.7431

          k = 0.0000 0.1875 0.0000 (  7357 PWs)   bands (ev):

   -10.5946  -9.1983  -7.0124  -5.0212  -4.1444  -3.6736  -2.3652  -1.8304
    -1.5611  -1.0752  -0.9537   0.4183   0.9711   1.1788   1.6330   1.6652

          k = 0.0000 0.2500 0.0000 (  7359 PWs)   bands (ev):

   -10.3454  -8.9510  -6.7678  -5.8702  -4.5129  -3.9022  -2.3858  -2.1351
    -1.5984  -0.8457  -0.7261   0.4221   0.6566   1.1995   1.8390   2.0693

          k = 0.0000 0.3125 0.0000 (  7313 PWs)   bands (ev):

   -10.0255  -8.6335  -6.6608  -6.4538  -5.2959  -3.5916  -3.1572  -1.8401
    -1.3010  -0.5505  -0.5503  -0.1878   0.9363   1.3138   1.4942   1.8948

          k = 0.0000 0.3750 0.0000 (  7316 PWs)   bands (ev):

    -9.6354  -8.2466  -7.3888  -6.0712  -6.0176  -3.8691  -3.2136  -1.4783
    -1.0713  -0.9385  -0.1892   0.0134   0.6238   1.0282   1.5002   1.8534

          k = 0.0000 0.4375 0.0000 (  7318 PWs)   bands (ev):

    -9.1759  -8.0516  -7.7907  -6.6752  -5.6206  -4.5184  -2.7697  -1.6918
    -1.0515  -0.5122  -0.0004   0.2372   0.4316   0.5160   1.2863   1.4413

          k = 0.0000-0.5000 0.0000 (  7322 PWs)   bands (ev):

    -8.6477  -8.6477  -7.2665  -7.2665  -5.1025  -5.1025  -2.2613  -2.2613
    -0.5588  -0.5588  -0.0246  -0.0246   0.7291   0.7291   0.9154   0.9154

          k = 0.0625 0.0625 0.0000 (  7351 PWs)   bands (ev):

   -10.8443  -9.4460  -7.2574  -4.3873  -3.1924  -3.1924  -2.0625  -1.8755
    -1.8755  -0.6149  -0.6149   0.1920   0.1920   0.7807   0.7808   1.4114

          k = 0.0625 0.1250 0.0000 (  7362 PWs)   bands (ev):

   -10.7372  -9.3398  -7.1524  -4.2832  -4.0910  -3.0986  -2.7466  -1.9631
    -1.7736  -0.6613  -0.5063   0.2908   0.4306   0.9130   1.5045   1.8159

          k = 0.0625 0.1875 0.0000 (  7372 PWs)   bands (ev):

   -10.5590  -9.1630  -6.9774  -4.9870  -4.1098  -3.6423  -2.9191  -1.7973
    -1.6176  -1.5153  -0.3407   0.4409   0.9954   1.2764   1.6436   1.7058

          k = 0.0625 0.2500 0.0000 (  7355 PWs)   bands (ev):

   -10.3098  -8.9157  -6.7329  -5.8357  -4.4792  -3.8677  -2.6879  -2.3528
    -1.5657  -1.3725  -0.1342   0.4121   0.7809   1.2370   1.4841   1.9756

          k = 0.0625 0.3125 0.0000 (  7313 PWs)   bands (ev):

    -9.9900  -8.5983  -6.6262  -6.4189  -5.2617  -3.5572  -3.1235  -2.3890
    -1.2685  -1.0746  -0.3653   0.2609   0.7802   1.0165   1.4764   1.9566

          k = 0.0625 0.3750 0.0000 (  7311 PWs)   bands (ev):

    -9.6000  -8.2115  -7.3540  -6.0365  -5.9831  -3.8350  -3.1797  -2.0258
    -1.0207  -0.9068  -0.7119   0.0978   0.5993   1.1560   1.3688   1.4076

          k = 0.0625 0.4375 0.0000 (  7313 PWs)   bands (ev):

    -9.1406  -8.0166  -7.7556  -6.6404  -5.5859  -4.4840  -2.7363  -1.7029
    -1.5384  -0.5260  -0.4831  -0.2873   0.5740   0.7872   1.0195   1.7900

          k = 0.0625-0.5000 0.0000 (  7318 PWs)   bands (ev):

    -8.6125  -8.6125  -7.2317  -7.2317  -5.0682  -5.0682  -2.2300  -2.2300
    -1.0853  -1.0853  -0.0252  -0.0252   0.2590   0.2590   1.4963   1.4963

          k = 0.1250 0.1250 0.0000 (  7361 PWs)   bands (ev):

   -10.6302  -9.2337  -7.0474  -4.1793  -3.9908  -3.9908  -2.6492  -2.6492
    -1.8639  -0.5630  -0.5630   0.5643   0.5643   1.5758   1.9257   1.9257

          k = 0.1250 0.1875 0.0000 (  7350 PWs)   bands (ev):

   -10.4521  -9.0570  -6.8726  -4.8846  -4.0062  -3.8335  -3.5198  -2.4820
    -1.6984  -1.4261  -0.4043   0.7180   1.3992   1.3995   1.7133   1.9083

          k = 0.1250 0.2500 0.0000 (  7352 PWs)   bands (ev):

   -10.2032  -8.8099  -6.6283  -5.7325  -4.3800  -3.7645  -3.5756  -2.2814
    -2.2158  -1.4674  -0.2038   0.5594   0.6673   1.0340   1.9961   2.0561

          k = 0.1250 0.3125 0.0000 (  7331 PWs)   bands (ev):

    -9.8836  -8.4928  -6.5223  -6.3147  -5.1593  -3.4547  -3.2752  -3.0225
    -1.9439  -1.1716  -0.3026  -0.0739   0.2426   1.2500   1.2980   1.8668

          k = 0.1250 0.3750 0.0000 (  7303 PWs)   bands (ev):

    -9.4939  -8.1062  -7.2495  -5.9324  -5.8796  -3.7329  -3.0781  -2.9066
    -1.5773  -0.9281  -0.8135  -0.7625   0.5442   0.5658   1.2631   1.6509

          k = 0.1250 0.4375 0.0000 (  7305 PWs)   bands (ev):

    -9.0348  -7.9116  -7.6507  -6.5363  -5.4823  -4.3811  -2.6376  -2.4744
    -1.5459  -1.3898  -1.1461  -0.4201  -0.0286   0.6700   0.9600   1.9860

          k = 0.1250-0.5000 0.0000 (  7302 PWs)   bands (ev):

    -8.5072  -8.5072  -7.1271  -7.1271  -4.9648  -4.9648  -2.1624  -2.1624
    -1.9241  -1.9241  -0.6574  -0.6574   0.1337   0.1337   1.4451   1.4452

          k = 0.1875 0.1875 0.0000 (  7341 PWs)   bands (ev):

   -10.2743  -8.8804  -6.6980  -4.7153  -4.7153  -3.8334  -3.3614  -3.3614
    -1.5335  -1.2628  -1.2628   0.6182   1.4764   1.4764   1.9513   1.9795

          k = 0.1875 0.2500 0.0000 (  7334 PWs)   bands (ev):

   -10.0255  -8.6336  -6.4540  -5.5608  -4.4903  -4.1854  -3.5925  -3.1259
    -2.0840  -1.3042  -1.0384  -0.1810   0.7283   1.1479   1.6829   2.1883

          k = 0.1875 0.3125 0.0000 (  7323 PWs)   bands (ev):

    -9.7064  -8.3170  -6.3493  -6.1409  -4.9908  -4.1598  -3.2843  -2.8673
    -2.8076  -1.0128  -0.9337  -0.7763   0.0280   0.4007   1.7504   2.3037

          k = 0.1875 0.3750 0.0000 (  7302 PWs)   bands (ev):

    -9.3171  -7.9308  -7.0755  -5.7591  -5.7076  -3.7896  -3.5632  -2.9108
    -2.4507  -1.6273  -0.8305  -0.6853  -0.2585  -0.2409   1.3662   1.7596

          k = 0.1875 0.4375 0.0000 (  7292 PWs)   bands (ev):

    -8.8586  -7.7369  -7.4760  -6.3632  -5.3096  -4.2103  -3.3512  -2.4975
    -2.2342  -2.0148  -1.3952  -0.9605  -0.1902   0.1228   0.8127   1.1551

          k = 0.1875-0.5000 0.0000 (  7310 PWs)   bands (ev):

    -8.3316  -8.3316  -6.9531  -6.9531  -4.7930  -4.7930  -2.8495  -2.8495
    -1.9501  -1.9501  -1.5153  -1.5153   0.2802   0.2802   0.6042   0.6042

          k = 0.2500 0.2500 0.0000 (  7315 PWs)   bands (ev):

    -9.7772  -8.3872  -6.2104  -5.3215  -5.3215  -3.9602  -3.9602  -3.3530
    -1.8532  -1.8532  -1.0791  -0.9932   0.3431   0.9397   0.9397   2.2433

          k = 0.2500 0.3125 0.0000 (  7328 PWs)   bands (ev):

    -9.4586  -8.0712  -6.1076  -5.8979  -5.0272  -4.7261  -3.6555  -3.0479
    -2.6183  -1.7512  -1.5613  -0.8183  -0.3790   0.2199   1.1792   1.6409

          k = 0.2500 0.3750 0.0000 (  7276 PWs)   bands (ev):

    -9.0701  -7.6857  -6.8323  -5.5168  -5.4695  -4.6259  -3.3313  -3.2766
    -2.6995  -2.4272  -1.2341  -1.1493  -0.4235  -0.3863   0.9728   1.2973

          k = 0.2500 0.4375 0.0000 (  7312 PWs)   bands (ev):

    -8.6124  -7.4926  -7.2317  -6.1215  -5.0683  -4.1861  -3.9716  -3.1078
    -2.8427  -2.2219  -1.7705  -1.2333  -0.6203   0.0176   0.3566   0.9735

          k = 0.2500-0.5000 0.0000 (  7314 PWs)   bands (ev):

    -8.0862  -8.0862  -6.7098  -6.7098  -4.5528  -4.5528  -3.6784  -3.6784
    -2.3381  -2.3381  -1.7331  -1.7331  -0.1911  -0.1911   0.4844   0.4844

          k = 0.3125 0.3125 0.0000 (  7326 PWs)   bands (ev):

    -9.1407  -7.7557  -5.7983  -5.7983  -5.5862  -4.4324  -4.4324  -2.7674
    -2.4924  -2.3189  -2.3189  -1.2132  -0.4523   0.4900   0.4900   0.9110

          k = 0.3125 0.3750 0.0000 (  7306 PWs)   bands (ev):

    -8.7530  -7.3713  -6.5203  -5.4339  -5.2063  -5.1354  -4.0582  -3.2382
    -3.0223  -2.3584  -1.9593  -1.8997  -0.1713  -0.1141   0.2306   0.7917

          k = 0.3125 0.4375 0.0000 (  7314 PWs)   bands (ev):

    -8.2963  -7.1791  -6.9185  -5.8136  -4.9633  -4.7590  -3.8770  -3.6671
    -3.6144  -2.5347  -1.9367  -1.5657  -0.7518  -0.3826   0.2870   0.9702

          k = 0.3125-0.5000 0.0000 (  7294 PWs)   bands (ev):

    -7.7714  -7.7714  -6.3981  -6.3981  -4.4538  -4.4538  -4.2449  -4.2449
    -3.1075  -3.1075  -1.5038  -1.5038  -0.8777  -0.8777   0.7101   0.7101

          k = 0.3750 0.3750 0.0000 (  7312 PWs)   bands (ev):

    -8.3665  -6.9881  -6.1411  -6.1411  -4.8278  -4.7721  -4.7721  -3.9431
    -2.6543  -2.6543  -2.6004  -2.0047  -0.4471   0.1637   0.1637   0.2211

          k = 0.3750 0.4375 0.0000 (  7301 PWs)   bands (ev):

    -7.9110  -6.7970  -6.5368  -5.7065  -5.4100  -4.5883  -4.3819  -4.3287
    -3.2932  -3.2408  -2.2265  -1.6394  -1.0076  -0.4351   0.5310   0.5784

          k = 0.3750-0.5000 0.0000 (  7308 PWs)   bands (ev):

    -7.3875  -7.3875  -6.0203  -6.0203  -5.1667  -5.1667  -3.8702  -3.8702
    -3.8173  -3.8173  -1.7660  -1.7660  -0.9504  -0.9504   0.7733   0.7733

          k = 0.4375 0.4375 0.0000 (  7306 PWs)   bands (ev):

    -7.4571  -6.3477  -6.3477  -6.0893  -5.2348  -4.9769  -4.9769  -3.9381
    -3.8851  -2.8564  -2.8564  -1.8331  -1.0167  -0.0334  -0.0334   0.7076

          k = 0.4375-0.5000 0.0000 (  7318 PWs)   bands (ev):

    -6.9356  -6.9356  -5.8433  -5.8433  -5.5475  -5.5475  -4.4646  -4.4646
    -3.4287  -3.4287  -2.3607  -2.3607  -0.5677  -0.5677   0.3999   0.3999

          k =-0.5000-0.5000 0.0000 (  7340 PWs)   bands (ev):

    -6.4168  -6.4168  -6.4168  -6.4168  -5.0454  -5.0454  -5.0454  -5.0454
    -2.9241  -2.9241  -2.9241  -2.9241  -0.0998  -0.0998  -0.0998  -0.0998

     the Fermi energy is    -0.1625 ev

!    total energy              =     -99.57959981 Ry
     Harris-Foulkes estimate   =     -99.57959981 Ry
     estimated scf accuracy    <       0.00000013 Ry

     The total energy is the sum of the following terms:

     one-electron contribution =    -399.04574901 Ry
     hartree contribution      =     204.32876609 Ry
     xc contribution           =     -79.84182839 Ry
     ewald contribution        =     174.97900861 Ry
     smearing contrib. (-TS)   =       0.00020289 Ry

     convergence has been achieved in  16 iterations

     Forces acting on atoms (Ry/au):

     atom    1 type  1   force =     0.00000000    0.00000000   -0.00548141
     atom    2 type  1   force =     0.00000000    0.00000000   -0.00548140
     atom    3 type  1   force =     0.00000000    0.00000000    0.00131800
     atom    4 type  1   force =     0.00000000    0.00000000    0.00131800
     atom    5 type  1   force =     0.00000000    0.00000000   -0.00131770
     atom    6 type  1   force =     0.00000000    0.00000000   -0.00131764
     atom    7 type  1   force =     0.00000000    0.00000000    0.00548108
     atom    8 type  1   force =     0.00000000    0.00000000    0.00548108

     Total force =     0.011275     Total SCF correction =     0.000582


     entering subroutine stress ...

          total   stress  (Ry/bohr**3)                   (kbar)     P=   -8.77
  -0.00010386   0.00000000   0.00000000        -15.28      0.00      0.00
   0.00000000  -0.00010386   0.00000000          0.00    -15.28      0.00
   0.00000000   0.00000000   0.00002883          0.00      0.00      4.24


     BFGS Geometry Optimization

     number of scf cycles    =   1
     number of bfgs steps    =   0

     energy   new            =     -99.5795998051 Ry

     new trust radius        =       0.0054814059 bohr
     new conv_thr            =       0.0000010000 Ry


ATOMIC_POSITIONS (crystal)
Al       0.000000000   0.000000000  -0.000120127
Al       0.500000000   0.500000000  -0.000120127
Al       0.500000000   0.000000000   0.083362218
Al       0.000000000   0.500000000   0.083362218
Al       0.000000000   0.000000000   0.166637789
Al       0.500000000   0.500000000   0.166637790
Al       0.500000000   0.000000000   0.250120120
Al       0.000000000   0.500000000   0.250120120



     Writing output data file Al_100_2_4.save
     NEW-OLD atomic charge density approx. for the potential

     negative rho (up, down):  6.683E-08 0.000E+00

     total cpu time spent up to now is      339.9 secs

     per-process dynamical memory:   135.6 Mb

     Self-consistent Calculation

     iteration #  1     ecut=    30.00 Ry     beta=0.30
     Davidson diagonalization with overlap
     ethr =  1.00E-06,  avg # of iterations =  2.0

     Threshold (ethr) on eigenvalues was too large:
     Diagonalizing with lowered threshold

     Davidson diagonalization with overlap
     ethr =  6.99E-08,  avg # of iterations =  2.4

     negative rho (up, down):  8.248E-08 0.000E+00

     total cpu time spent up to now is      385.7 secs

     total energy              =     -99.57972342 Ry
     Harris-Foulkes estimate   =     -99.57972491 Ry
     estimated scf accuracy    <       0.00002252 Ry

     iteration #  2     ecut=    30.00 Ry     beta=0.30
     Davidson diagonalization with overlap
     ethr =  9.38E-08,  avg # of iterations =  1.0

     negative rho (up, down):  6.492E-06 0.000E+00

     total cpu time spent up to now is      404.5 secs

     total energy              =     -99.57971880 Ry
     Harris-Foulkes estimate   =     -99.57972358 Ry
     estimated scf accuracy    <       0.00001516 Ry

     iteration #  3     ecut=    30.00 Ry     beta=0.30
     Davidson diagonalization with overlap
     ethr =  6.32E-08,  avg # of iterations =  2.0

     negative rho (up, down):  2.114E-06 0.000E+00

     total cpu time spent up to now is      425.5 secs

     total energy              =     -99.57972101 Ry
     Harris-Foulkes estimate   =     -99.57972235 Ry
     estimated scf accuracy    <       0.00000467 Ry

     iteration #  4     ecut=    30.00 Ry     beta=0.30
     Davidson diagonalization with overlap
     ethr =  1.95E-08,  avg # of iterations =  2.0

     total cpu time spent up to now is      444.3 secs

     End of self-consistent calculation

          k = 0.0000 0.0000 0.0000 (  7343 PWs)   bands (ev):

   -10.9077  -9.5054  -7.3264  -4.4577  -2.6525  -2.6525  -2.1303  -1.3581
    -1.3581  -1.2793  -1.2793   0.1646   0.1646   0.6776   0.6776   1.3427

          k = 0.0000 0.0625 0.0000 (  7359 PWs)   bands (ev):

   -10.8721  -9.4700  -7.2915  -4.4232  -3.2171  -2.6198  -2.0973  -1.9055
    -1.3252  -1.2191  -0.6666   0.1232   0.2589   0.7104   0.7436   1.3751

          k = 0.0000 0.1250 0.0000 (  7353 PWs)   bands (ev):

   -10.7650  -9.3638  -7.1864  -4.3190  -4.1166  -2.7799  -2.5211  -1.9977
    -1.2265  -1.1145  -0.6972   0.1835   0.5573   0.8086   1.4716   1.7528

          k = 0.0000 0.1875 0.0000 (  7357 PWs)   bands (ev):

   -10.5867  -9.1869  -7.0114  -5.0132  -4.1455  -3.6619  -2.3571  -1.8319
    -1.5598  -1.0626  -0.9457   0.4287   0.9719   1.1777   1.6288   1.6732

          k = 0.0000 0.2500 0.0000 (  7359 PWs)   bands (ev):

   -10.3374  -8.9396  -6.7669  -5.8623  -4.5013  -3.9033  -2.3846  -2.1270
    -1.5999  -0.8331  -0.7181   0.4210   0.6670   1.2002   1.8355   2.0775

          k = 0.0000 0.3125 0.0000 (  7313 PWs)   bands (ev):

   -10.0175  -8.6220  -6.6529  -6.4528  -5.2843  -3.5926  -3.1560  -1.8319
    -1.3024  -0.5453  -0.5378  -0.1860   0.9462   1.3220   1.4949   1.8949

          k = 0.0000 0.3750 0.0000 (  7316 PWs)   bands (ev):

    -9.6275  -8.2351  -7.3809  -6.0702  -6.0061  -3.8680  -3.2147  -1.4701
    -1.0717  -0.9399  -0.1765   0.0207   0.6320   1.0300   1.5082   1.8541

          k = 0.0000 0.4375 0.0000 (  7318 PWs)   bands (ev):

    -9.1680  -8.0437  -7.7792  -6.6637  -5.6195  -4.5173  -2.7706  -1.6926
    -1.0433  -0.5135   0.0078   0.2499   0.4392   0.5149   1.2990   1.4489

          k = 0.0000-0.5000 0.0000 (  7322 PWs)   bands (ev):

    -8.6397  -8.6397  -7.2550  -7.2550  -5.1015  -5.1015  -2.2622  -2.2622
    -0.5506  -0.5506  -0.0258  -0.0258   0.7418   0.7418   0.9231   0.9231

          k = 0.0625 0.0625 0.0000 (  7351 PWs)   bands (ev):

   -10.8364  -9.4346  -7.2565  -4.3884  -3.1844  -3.1844  -2.0641  -1.8633
    -1.8633  -0.6068  -0.6068   0.1933   0.1933   0.7917   0.7917   1.4070

          k = 0.0625 0.1250 0.0000 (  7362 PWs)   bands (ev):

   -10.7293  -9.3284  -7.1514  -4.2843  -4.0830  -3.0904  -2.7348  -1.9646
    -1.7614  -0.6600  -0.4983   0.2918   0.4389   0.9238   1.5003   1.8271

          k = 0.0625 0.1875 0.0000 (  7372 PWs)   bands (ev):

   -10.5511  -9.1515  -6.9765  -4.9791  -4.1109  -3.6306  -2.9110  -1.7988
    -1.6062  -1.5133  -0.3326   0.4417   1.0063   1.2755   1.6401   1.7140

          k = 0.0625 0.2500 0.0000 (  7355 PWs)   bands (ev):

   -10.3019  -8.9043  -6.7319  -5.8277  -4.4675  -3.8688  -2.6798  -2.3516
    -1.5671  -1.3603  -0.1264   0.4114   0.7817   1.2478   1.4908   1.9729

          k = 0.0625 0.3125 0.0000 (  7313 PWs)   bands (ev):

    -9.9820  -8.5869  -6.6182  -6.4180  -5.2500  -3.5582  -3.1223  -2.3809
    -1.2699  -1.0624  -0.3651   0.2677   0.7883   1.0175   1.4848   1.9587

          k = 0.0625 0.3750 0.0000 (  7311 PWs)   bands (ev):

    -9.5921  -8.2000  -7.3461  -6.0355  -5.9716  -3.8339  -3.1807  -2.0177
    -1.0214  -0.9082  -0.6997   0.1059   0.6069   1.1556   1.3698   1.4200

          k = 0.0625 0.4375 0.0000 (  7313 PWs)   bands (ev):

    -9.1327  -8.0087  -7.7442  -6.6289  -5.5849  -4.4829  -2.7373  -1.7008
    -1.5334  -0.5179  -0.4844  -0.2753   0.5732   0.7995   1.0273   1.7910

          k = 0.0625-0.5000 0.0000 (  7318 PWs)   bands (ev):

    -8.6046  -8.6046  -7.2202  -7.2202  -5.0671  -5.0671  -2.2308  -2.2308
    -1.0773  -1.0773  -0.0249  -0.0249   0.2698   0.2698   1.5040   1.5040

          k = 0.1250 0.1250 0.0000 (  7361 PWs)   bands (ev):

   -10.6223  -9.2223  -7.0465  -4.1803  -3.9827  -3.9827  -2.6373  -2.6373
    -1.8654  -0.5618  -0.5618   0.5723   0.5723   1.5724   1.9370   1.9370

          k = 0.1250 0.1875 0.0000 (  7350 PWs)   bands (ev):

   -10.4442  -9.0455  -6.8717  -4.8766  -4.0073  -3.8253  -3.5082  -2.4701
    -1.6999  -1.4250  -0.4033   0.7258   1.3986   1.4054   1.7214   1.9060

          k = 0.1250 0.2500 0.0000 (  7352 PWs)   bands (ev):

   -10.1952  -8.7985  -6.6273  -5.7245  -4.3683  -3.7655  -3.5676  -2.2747
    -2.2095  -1.4689  -0.2028   0.5600   0.6752   1.0407   2.0084   2.0518

          k = 0.1250 0.3125 0.0000 (  7331 PWs)   bands (ev):

    -9.8756  -8.4813  -6.5143  -6.3137  -5.1477  -3.4557  -3.2671  -3.0213
    -1.9321  -1.1730  -0.3032  -0.0658   0.2436   1.2623   1.3057   1.8670

          k = 0.1250 0.3750 0.0000 (  7303 PWs)   bands (ev):

    -9.4860  -8.0947  -7.2416  -5.9314  -5.8680  -3.7318  -3.0791  -2.8985
    -1.5654  -0.9290  -0.8148  -0.7545   0.5454   0.5780   1.2625   1.6588

          k = 0.1250 0.4375 0.0000 (  7305 PWs)   bands (ev):

    -9.0269  -7.9037  -7.6392  -6.5247  -5.4812  -4.3801  -2.6384  -2.4663
    -1.5469  -1.3819  -1.1343  -0.4202  -0.0176   0.6692   0.9611   1.9871

          k = 0.1250-0.5000 0.0000 (  7302 PWs)   bands (ev):

    -8.4992  -8.4992  -7.1156  -7.1156  -4.9637  -4.9637  -2.1615  -2.1615
    -1.9179  -1.9179  -0.6458  -0.6458   0.1331   0.1331   1.4463   1.4463

          k = 0.1875 0.1875 0.0000 (  7341 PWs)   bands (ev):

   -10.2663  -8.8690  -6.6970  -4.7073  -4.7073  -3.8345  -3.3497  -3.3496
    -1.5350  -1.2617  -1.2617   0.6261   1.4768   1.4768   1.9636   1.9866

          k = 0.1875 0.2500 0.0000 (  7334 PWs)   bands (ev):

   -10.0176  -8.6222  -6.4530  -5.5528  -4.4821  -4.1739  -3.5936  -3.1141
    -2.0830  -1.3056  -1.0373  -0.1730   0.7279   1.1601   1.6829   2.1961

          k = 0.1875 0.3125 0.0000 (  7323 PWs)   bands (ev):

    -9.6984  -8.3055  -6.3413  -6.1399  -4.9792  -4.1517  -3.2853  -2.8631
    -2.7989  -1.0142  -0.9257  -0.7754   0.0276   0.4127   1.7510   2.3032

          k = 0.1875 0.3750 0.0000 (  7302 PWs)   bands (ev):

    -9.3092  -7.9193  -7.0676  -5.7581  -5.6961  -3.7815  -3.5620  -2.9117
    -2.4390  -1.6194  -0.8312  -0.6855  -0.2476  -0.2399   1.3660   1.7609

          k = 0.1875 0.4375 0.0000 (  7292 PWs)   bands (ev):

    -8.8507  -7.7289  -7.4645  -6.3517  -5.3085  -4.2092  -3.3431  -2.4969
    -2.2278  -2.0030  -1.3962  -0.9491  -0.1908   0.1240   0.8119   1.1564

          k = 0.1875-0.5000 0.0000 (  7310 PWs)   bands (ev):

    -8.3237  -8.3237  -6.9416  -6.9416  -4.7919  -4.7919  -2.8414  -2.8414
    -1.9512  -1.9511  -1.5035  -1.5035   0.2793   0.2793   0.6055   0.6055

          k = 0.2500 0.2500 0.0000 (  7315 PWs)   bands (ev):

    -9.7692  -8.3758  -6.2094  -5.3135  -5.3135  -3.9485  -3.9485  -3.3540
    -1.8521  -1.8521  -1.0804  -0.9852   0.3551   0.9392   0.9393   2.2428

          k = 0.2500 0.3125 0.0000 (  7328 PWs)   bands (ev):

    -9.4507  -8.0597  -6.0996  -5.8969  -5.0190  -4.7147  -3.6437  -3.0488
    -2.6173  -1.7433  -1.5602  -0.8185  -0.3681   0.2194   1.1792   1.6422

          k = 0.2500 0.3750 0.0000 (  7276 PWs)   bands (ev):

    -9.0622  -7.6742  -6.8243  -5.5158  -5.4580  -4.6178  -3.3287  -3.2665
    -2.6991  -2.4206  -1.2333  -1.1380  -0.4240  -0.3869   0.9741   1.2978

          k = 0.2500 0.4375 0.0000 (  7312 PWs)   bands (ev):

    -8.6044  -7.4846  -7.2202  -6.1100  -5.0673  -4.1781  -3.9705  -3.0997
    -2.8310  -2.2230  -1.7588  -1.2341  -0.6192   0.0166   0.3578   0.9733

          k = 0.2500-0.5000 0.0000 (  7314 PWs)   bands (ev):

    -8.0783  -8.0783  -6.6982  -6.6982  -4.5517  -4.5517  -3.6703  -3.6703
    -2.3264  -2.3264  -1.7341  -1.7341  -0.1899  -0.1899   0.4837   0.4837

          k = 0.3125 0.3125 0.0000 (  7326 PWs)   bands (ev):

    -9.1327  -7.7443  -5.7903  -5.7903  -5.5852  -4.4207  -4.4207  -2.7670
    -2.4859  -2.3178  -2.3178  -1.2020  -0.4529   0.4896   0.4896   0.9123

          k = 0.3125 0.3750 0.0000 (  7306 PWs)   bands (ev):

    -8.7451  -7.3598  -6.5124  -5.4257  -5.2052  -5.1240  -4.0465  -3.2301
    -3.0212  -2.3595  -1.9582  -1.8880  -0.1719  -0.1150   0.2319   0.7916

          k = 0.3125 0.4375 0.0000 (  7314 PWs)   bands (ev):

    -8.2884  -7.1711  -6.9070  -5.8020  -4.9552  -4.7580  -3.8689  -3.6654
    -3.6033  -2.5230  -1.9378  -1.5650  -0.7523  -0.3813   0.2862   0.9707

          k = 0.3125-0.5000 0.0000 (  7294 PWs)   bands (ev):

    -7.7634  -7.7634  -6.3866  -6.3866  -4.4458  -4.4458  -4.2438  -4.2438
    -3.0958  -3.0958  -1.5046  -1.5046  -0.8766  -0.8766   0.7099   0.7099

          k = 0.3750 0.3750 0.0000 (  7312 PWs)   bands (ev):

    -8.3586  -6.9766  -6.1331  -6.1331  -4.8267  -4.7605  -4.7605  -3.9351
    -2.6532  -2.6532  -2.5887  -2.0058  -0.4458   0.1632   0.1632   0.2203

          k = 0.3750 0.4375 0.0000 (  7301 PWs)   bands (ev):

    -7.9031  -6.7890  -6.5253  -5.6983  -5.3986  -4.5803  -4.3808  -4.3170
    -3.2921  -3.2292  -2.2254  -1.6402  -1.0065  -0.4357   0.5309   0.5781

          k = 0.3750-0.5000 0.0000 (  7308 PWs)   bands (ev):

    -7.3796  -7.3796  -6.0088  -6.0088  -5.1587  -5.1587  -3.8689  -3.8689
    -3.8058  -3.8058  -1.7652  -1.7652  -0.9509  -0.9509   0.7738   0.7738

          k = 0.4375 0.4375 0.0000 (  7306 PWs)   bands (ev):

    -7.4491  -6.3397  -6.3397  -6.0777  -5.2268  -4.9653  -4.9653  -3.9370
    -3.8735  -2.8554  -2.8554  -1.8323  -1.0172  -0.0339  -0.0339   0.7081

          k = 0.4375-0.5000 0.0000 (  7318 PWs)   bands (ev):

    -6.9276  -6.9276  -5.8351  -5.8351  -5.5361  -5.5361  -4.4530  -4.4530
    -3.4276  -3.4276  -2.3597  -2.3597  -0.5683  -0.5683   0.3998   0.3998

          k =-0.5000-0.5000 0.0000 (  7340 PWs)   bands (ev):

    -6.4088  -6.4088  -6.4088  -6.4088  -5.0338  -5.0338  -5.0338  -5.0338
    -2.9230  -2.9230  -2.9230  -2.9230  -0.1003  -0.1003  -0.1003  -0.1003

     the Fermi energy is    -0.1592 ev

!    total energy              =     -99.57972120 Ry
     Harris-Foulkes estimate   =     -99.57972193 Ry
     estimated scf accuracy    <       0.00000084 Ry

     The total energy is the sum of the following terms:

     one-electron contribution =    -398.72672372 Ry
     hartree contribution      =     204.16084445 Ry
     xc contribution           =     -79.83867448 Ry
     ewald contribution        =     174.82462630 Ry
     smearing contrib. (-TS)   =       0.00020624 Ry

     convergence has been achieved in   4 iterations

     Forces acting on atoms (Ry/au):

     atom    1 type  1   force =     0.00000000    0.00000000   -0.00513980
     atom    2 type  1   force =     0.00000000    0.00000000   -0.00513979
     atom    3 type  1   force =     0.00000000    0.00000000    0.00084147
     atom    4 type  1   force =     0.00000000    0.00000000    0.00084147
     atom    5 type  1   force =     0.00000000    0.00000000   -0.00084248
     atom    6 type  1   force =     0.00000000    0.00000000   -0.00084250
     atom    7 type  1   force =     0.00000000    0.00000000    0.00514083
     atom    8 type  1   force =     0.00000000    0.00000000    0.00514083

     Total force =     0.010418     Total SCF correction =     0.001357
     SCF correction compared to forces is large: reduce conv_thr to get better values


     entering subroutine stress ...

          total   stress  (Ry/bohr**3)                   (kbar)     P=   -8.95
  -0.00010453   0.00000000   0.00000000        -15.38      0.00      0.00
   0.00000000  -0.00010453   0.00000000          0.00    -15.38      0.00
   0.00000000   0.00000000   0.00002645          0.00      0.00      3.89


     number of scf cycles    =   2
     number of bfgs steps    =   1

     energy   old            =     -99.5795998051 Ry
     energy   new            =     -99.5797212015 Ry

     CASE: energy  _new < energy  _old


     WARNING: bfgs curvature condition failed, Theta= 0.868
     new trust radius        =       0.0060295465 bohr
     new conv_thr            =       0.0000000121 Ry


ATOMIC_POSITIONS (crystal)
Al       0.000000000   0.000000000  -0.000252251
Al       0.500000000   0.500000000  -0.000252250
Al       0.500000000   0.000000000   0.083386747
Al       0.000000000   0.500000000   0.083386747
Al       0.000000000   0.000000000   0.166613243
Al       0.500000000   0.500000000   0.166613244
Al       0.500000000   0.000000000   0.250252260
Al       0.000000000   0.500000000   0.250252260



     Writing output data file Al_100_2_4.save
     NEW-OLD atomic charge density approx. for the potential

     negative rho (up, down):  9.587E-08 0.000E+00

     total cpu time spent up to now is      452.1 secs

     per-process dynamical memory:   135.6 Mb

     Self-consistent Calculation

     iteration #  1     ecut=    30.00 Ry     beta=0.30
     Davidson diagonalization with overlap
     ethr =  1.00E-06,  avg # of iterations =  2.0

     total cpu time spent up to now is      476.7 secs

     total energy              =     -99.57984375 Ry
     Harris-Foulkes estimate   =     -99.57984528 Ry
     estimated scf accuracy    <       0.00003073 Ry

     iteration #  2     ecut=    30.00 Ry     beta=0.30
     Davidson diagonalization with overlap
     ethr =  1.28E-07,  avg # of iterations =  1.1

     total cpu time spent up to now is      492.8 secs

     total energy              =     -99.57984086 Ry
     Harris-Foulkes estimate   =     -99.57984450 Ry
     estimated scf accuracy    <       0.00001794 Ry

     iteration #  3     ecut=    30.00 Ry     beta=0.30
     Davidson diagonalization with overlap
     ethr =  7.48E-08,  avg # of iterations =  2.0

     total cpu time spent up to now is      512.0 secs

     total energy              =     -99.57984308 Ry
     Harris-Foulkes estimate   =     -99.57984320 Ry
     estimated scf accuracy    <       0.00000092 Ry

     iteration #  4     ecut=    30.00 Ry     beta=0.30
     Davidson diagonalization with overlap
     ethr =  3.83E-09,  avg # of iterations =  2.0

     total cpu time spent up to now is      529.4 secs

     total energy              =     -99.57984303 Ry
     Harris-Foulkes estimate   =     -99.57984315 Ry
     estimated scf accuracy    <       0.00000032 Ry

     iteration #  5     ecut=    30.00 Ry     beta=0.30
     Davidson diagonalization with overlap
     ethr =  1.33E-09,  avg # of iterations =  3.0

     total cpu time spent up to now is      550.7 secs

     total energy              =     -99.57984311 Ry
     Harris-Foulkes estimate   =     -99.57984328 Ry
     estimated scf accuracy    <       0.00000203 Ry

     iteration #  6     ecut=    30.00 Ry     beta=0.30
     Davidson diagonalization with overlap
     ethr =  1.33E-09,  avg # of iterations =  1.7

     total cpu time spent up to now is      567.9 secs

     total energy              =     -99.57984315 Ry
     Harris-Foulkes estimate   =     -99.57984314 Ry
     estimated scf accuracy    <       0.00000085 Ry

     iteration #  7     ecut=    30.00 Ry     beta=0.30
     Davidson diagonalization with overlap
     ethr =  1.33E-09,  avg # of iterations =  1.0

     total cpu time spent up to now is      584.3 secs

     total energy              =     -99.57984294 Ry
     Harris-Foulkes estimate   =     -99.57984315 Ry
     estimated scf accuracy    <       0.00000085 Ry

     iteration #  8     ecut=    30.00 Ry     beta=0.30
     Davidson diagonalization with overlap
     ethr =  1.33E-09,  avg # of iterations =  2.2

     total cpu time spent up to now is      603.3 secs

     total energy              =     -99.57984312 Ry
     Harris-Foulkes estimate   =     -99.57984313 Ry
     estimated scf accuracy    <       0.00000029 Ry

     iteration #  9     ecut=    30.00 Ry     beta=0.30
     Davidson diagonalization with overlap
     ethr =  1.22E-09,  avg # of iterations =  1.0

     total cpu time spent up to now is      619.5 secs

     total energy              =     -99.57984308 Ry
     Harris-Foulkes estimate   =     -99.57984312 Ry
     estimated scf accuracy    <       0.00000021 Ry

     iteration # 10     ecut=    30.00 Ry     beta=0.30
     Davidson diagonalization with overlap
     ethr =  8.60E-10,  avg # of iterations =  2.0

     total cpu time spent up to now is      637.8 secs

     End of self-consistent calculation

          k = 0.0000 0.0000 0.0000 (  7343 PWs)   bands (ev):

   -10.9043  -9.4985  -7.3291  -4.4623  -2.6489  -2.6489  -2.1352  -1.3500
    -1.3500  -1.2759  -1.2759   0.1708   0.1708   0.6748   0.6748   1.3350

          k = 0.0000 0.0625 0.0000 (  7359 PWs)   bands (ev):

   -10.8687  -9.4632  -7.2942  -4.4279  -3.2136  -2.6161  -2.1022  -1.8979
    -1.3170  -1.2155  -0.6629   0.1243   0.2611   0.7076   0.7504   1.3674

          k = 0.0000 0.1250 0.0000 (  7353 PWs)   bands (ev):

   -10.7616  -9.3569  -7.1891  -4.3236  -4.1131  -2.7725  -2.5175  -2.0026
    -1.2184  -1.1110  -0.6994   0.1885   0.5615   0.8057   1.4640   1.7578

          k = 0.0000 0.1875 0.0000 (  7357 PWs)   bands (ev):

   -10.5833  -9.1800  -7.0141  -5.0098  -4.1502  -3.6546  -2.3534  -1.8368
    -1.5622  -1.0544  -0.9422   0.4346   0.9690   1.1733   1.6215   1.6768

          k = 0.0000 0.2500 0.0000 (  7359 PWs)   bands (ev):

   -10.3340  -8.9327  -6.7695  -5.8588  -4.4941  -3.9079  -2.3871  -2.1233
    -1.6047  -0.8249  -0.7146   0.4164   0.6729   1.1973   1.8286   2.0813

          k = 0.0000 0.3125 0.0000 (  7313 PWs)   bands (ev):

   -10.0141  -8.6152  -6.6494  -6.4555  -5.2773  -3.5972  -3.1585  -1.8282
    -1.3072  -0.5444  -0.5296  -0.1880   0.9516   1.3258   1.4919   1.8915

          k = 0.0000 0.3750 0.0000 (  7316 PWs)   bands (ev):

    -9.6241  -8.2282  -7.3774  -6.0729  -5.9991  -3.8705  -3.2192  -1.4665
    -1.0756  -0.9446  -0.1683   0.0234   0.6358   1.0284   1.5116   1.8511

          k = 0.0000 0.4375 0.0000 (  7318 PWs)   bands (ev):

    -9.1646  -8.0403  -7.7723  -6.6567  -5.6222  -4.5199  -2.7751  -1.6969
    -1.0396  -0.5182   0.0115   0.2582   0.4424   0.5107   1.3074   1.4521

          k = 0.0000-0.5000 0.0000 (  7322 PWs)   bands (ev):

    -8.6363  -8.6363  -7.2481  -7.2481  -5.1041  -5.1041  -2.2666  -2.2666
    -0.5469  -0.5469  -0.0303  -0.0303   0.7501   0.7501   0.9264   0.9264

          k = 0.0625 0.0625 0.0000 (  7351 PWs)   bands (ev):

   -10.8330  -9.4278  -7.2592  -4.3931  -3.1808  -3.1808  -2.0690  -1.8557
    -1.8557  -0.6032  -0.6032   0.1908   0.1908   0.7980   0.7980   1.3994

          k = 0.0625 0.1250 0.0000 (  7362 PWs)   bands (ev):

   -10.7259  -9.3215  -7.1541  -4.2889  -4.0794  -3.0867  -2.7275  -1.9695
    -1.7537  -0.6624  -0.4947   0.2891   0.4426   0.9299   1.4928   1.8337

          k = 0.0625 0.1875 0.0000 (  7372 PWs)   bands (ev):

   -10.5477  -9.1447  -6.9792  -4.9756  -4.1155  -3.6234  -2.9074  -1.8037
    -1.5994  -1.5148  -0.3290   0.4389   1.0126   1.2711   1.6334   1.7176

          k = 0.0625 0.2500 0.0000 (  7355 PWs)   bands (ev):

   -10.2985  -8.8974  -6.7346  -5.8243  -4.4604  -3.8734  -2.6762  -2.3540
    -1.5720  -1.3527  -0.1230   0.4074   0.7787   1.2540   1.4933   1.9667

          k = 0.0625 0.3125 0.0000 (  7313 PWs)   bands (ev):

    -9.9786  -8.5800  -6.6148  -6.4206  -5.2430  -3.5628  -3.1248  -2.3773
    -1.2747  -1.0547  -0.3685   0.2700   0.7919   1.0148   1.4892   1.9569

          k = 0.0625 0.3750 0.0000 (  7311 PWs)   bands (ev):

    -9.5887  -8.1931  -7.3426  -6.0382  -5.9646  -3.8364  -3.1853  -2.0141
    -1.0257  -0.9129  -0.6920   0.1095   0.6101   1.1519   1.3672   1.4279

          k = 0.0625 0.4375 0.0000 (  7313 PWs)   bands (ev):

    -9.1293  -8.0053  -7.7372  -6.6219  -5.5875  -4.4855  -2.7418  -1.7026
    -1.5323  -0.5143  -0.4890  -0.2677   0.5691   0.8074   1.0306   1.7883

          k = 0.0625-0.5000 0.0000 (  7318 PWs)   bands (ev):

    -8.6012  -8.6012  -7.2132  -7.2132  -5.0697  -5.0697  -2.2352  -2.2352
    -1.0737  -1.0737  -0.0280  -0.0280   0.2762   0.2762   1.5074   1.5074

          k = 0.1250 0.1250 0.0000 (  7361 PWs)   bands (ev):

   -10.6189  -9.2154  -7.0492  -4.1850  -3.9792  -3.9792  -2.6299  -2.6299
    -1.8703  -0.5643  -0.5643   0.5759   0.5759   1.5657   1.9438   1.9438

          k = 0.1250 0.1875 0.0000 (  7350 PWs)   bands (ev):

   -10.4408  -9.0387  -6.8744  -4.8731  -4.0119  -3.8216  -3.5011  -2.4626
    -1.7047  -1.4276  -0.4058   0.7292   1.3944   1.4070   1.7251   1.9002

          k = 0.1250 0.2500 0.0000 (  7352 PWs)   bands (ev):

   -10.1918  -8.7916  -6.6300  -5.7211  -4.3612  -3.7701  -3.5640  -2.2728
    -2.2065  -1.4737  -0.2054   0.5568   0.6788   1.0430   2.0162   2.0442

          k = 0.1250 0.3125 0.0000 (  7331 PWs)   bands (ev):

    -9.8722  -8.4744  -6.5109  -6.3164  -5.1406  -3.4603  -3.2635  -3.0238
    -1.9247  -1.1777  -0.3071  -0.0622   0.2408   1.2700   1.3090   1.8639

          k = 0.1250 0.3750 0.0000 (  7303 PWs)   bands (ev):

    -9.4825  -8.0878  -7.2381  -5.9340  -5.8610  -3.7343  -3.0836  -2.8949
    -1.5580  -0.9334  -0.8195  -0.7509   0.5428   0.5856   1.2585   1.6622

          k = 0.1250 0.4375 0.0000 (  7305 PWs)   bands (ev):

    -9.0235  -7.9002  -7.6323  -6.5177  -5.4839  -4.3826  -2.6428  -2.4627
    -1.5514  -1.3784  -1.1269  -0.4237  -0.0111   0.6649   0.9585   1.9846

          k = 0.1250-0.5000 0.0000 (  7302 PWs)   bands (ev):

    -8.4958  -8.4958  -7.1087  -7.1087  -4.9663  -4.9663  -2.1643  -2.1643
    -1.9160  -1.9160  -0.6387  -0.6387   0.1290   0.1290   1.4437   1.4437

          k = 0.1875 0.1875 0.0000 (  7341 PWs)   bands (ev):

   -10.2629  -8.8621  -6.6997  -4.7038  -4.7038  -3.8391  -3.3424  -3.3424
    -1.5398  -1.2642  -1.2642   0.6297   1.4735   1.4736   1.9714   1.9894

          k = 0.1875 0.2500 0.0000 (  7334 PWs)   bands (ev):

   -10.0142  -8.6153  -6.4556  -5.5493  -4.4784  -4.1670  -3.5981  -3.1068
    -2.0855  -1.3104  -1.0399  -0.1694   0.7238   1.1677   1.6794   2.1995

          k = 0.1875 0.3125 0.0000 (  7323 PWs)   bands (ev):

    -9.6950  -8.2986  -6.3378  -6.1425  -4.9722  -4.1482  -3.2898  -2.8634
    -2.7939  -1.0188  -0.9222  -0.7781   0.0235   0.4203   1.7483   2.2992

          k = 0.1875 0.3750 0.0000 (  7302 PWs)   bands (ev):

    -9.3058  -7.9124  -7.0641  -5.7607  -5.6891  -3.7780  -3.5645  -2.9161
    -2.4317  -1.6160  -0.8353  -0.6891  -0.2427  -0.2412   1.3625   1.7585

          k = 0.1875 0.4375 0.0000 (  7292 PWs)   bands (ev):

    -8.8473  -7.7255  -7.4575  -6.3447  -5.3112  -4.2118  -3.3396  -2.5000
    -2.2257  -1.9957  -1.4006  -0.9422  -0.1949   0.1214   0.8079   1.1539

          k = 0.1875-0.5000 0.0000 (  7310 PWs)   bands (ev):

    -8.3202  -8.3202  -6.9346  -6.9346  -4.7945  -4.7945  -2.8379  -2.8379
    -1.9557  -1.9557  -1.4962  -1.4962   0.2750   0.2750   0.6030   0.6030

          k = 0.2500 0.2500 0.0000 (  7315 PWs)   bands (ev):

    -9.7658  -8.3689  -6.2120  -5.3101  -5.3101  -3.9414  -3.9414  -3.3585
    -1.8546  -1.8546  -1.0851  -0.9816   0.3626   0.9353   0.9353   2.2388

          k = 0.2500 0.3125 0.0000 (  7328 PWs)   bands (ev):

    -9.4473  -8.0528  -6.0962  -5.8996  -5.0153  -4.7078  -3.6365  -3.0532
    -2.6199  -1.7399  -1.5628  -0.8221  -0.3617   0.2152   1.1756   1.6398

          k = 0.2500 0.3750 0.0000 (  7276 PWs)   bands (ev):

    -9.0588  -7.6673  -6.8209  -5.5184  -5.4510  -4.6143  -3.3302  -3.2603
    -2.7023  -2.4184  -1.2360  -1.1311  -0.4281  -0.3909   0.9717   1.2951

          k = 0.2500 0.4375 0.0000 (  7312 PWs)   bands (ev):

    -8.6010  -7.4812  -7.2132  -6.1030  -5.0699  -4.1746  -3.9731  -3.0962
    -2.8238  -2.2276  -1.7515  -1.2382  -0.6220   0.0123   0.3554   0.9697

          k = 0.2500-0.5000 0.0000 (  7314 PWs)   bands (ev):

    -8.0748  -8.0748  -6.6913  -6.6913  -4.5543  -4.5543  -3.6668  -3.6668
    -2.3192  -2.3192  -1.7386  -1.7386  -0.1924  -0.1924   0.4796   0.4796

          k = 0.3125 0.3125 0.0000 (  7326 PWs)   bands (ev):

    -9.1293  -7.7374  -5.7869  -5.7869  -5.5879  -4.4136  -4.4136  -2.7703
    -2.4836  -2.3204  -2.3204  -1.1951  -0.4569   0.4856   0.4856   0.9099

          k = 0.3125 0.3750 0.0000 (  7306 PWs)   bands (ev):

    -8.7417  -7.3529  -6.5089  -5.4220  -5.2079  -5.1172  -4.0393  -3.2266
    -3.0238  -2.3641  -1.9608  -1.8808  -0.1761  -0.1194   0.2295   0.7880

          k = 0.3125 0.4375 0.0000 (  7314 PWs)   bands (ev):

    -8.2850  -7.1677  -6.9000  -5.7951  -4.9517  -4.7606  -3.8654  -3.6676
    -3.5966  -2.5158  -1.9423  -1.5677  -0.7564  -0.3838   0.2821   0.9680

          k = 0.3125-0.5000 0.0000 (  7294 PWs)   bands (ev):

    -7.7600  -7.7600  -6.3796  -6.3796  -4.4422  -4.4422  -4.2464  -4.2464
    -3.0886  -3.0886  -1.5088  -1.5088  -0.8794  -0.8794   0.7063   0.7063

          k = 0.3750 0.3750 0.0000 (  7312 PWs)   bands (ev):

    -8.3552  -6.9697  -6.1297  -6.1297  -4.8294  -4.7535  -4.7535  -3.9316
    -2.6558  -2.6558  -2.5815  -2.0103  -0.4483   0.1592   0.1592   0.2162

          k = 0.3750 0.4375 0.0000 (  7301 PWs)   bands (ev):

    -7.8997  -6.7856  -6.5183  -5.6946  -5.3918  -4.5768  -4.3834  -4.3099
    -3.2947  -3.2220  -2.2280  -1.6444  -1.0093  -0.4399   0.5274   0.5745

          k = 0.3750-0.5000 0.0000 (  7308 PWs)   bands (ev):

    -7.3761  -7.3761  -6.0018  -6.0018  -5.1552  -5.1552  -3.8714  -3.8714
    -3.7988  -3.7988  -1.7679  -1.7679  -0.9550  -0.9550   0.7710   0.7710

          k = 0.4375 0.4375 0.0000 (  7306 PWs)   bands (ev):

    -7.4457  -6.3362  -6.3362  -6.0708  -5.2233  -4.9583  -4.9583  -3.9395
    -3.8664  -2.8579  -2.8579  -1.8351  -1.0213  -0.0379  -0.0379   0.7053

          k = 0.4375-0.5000 0.0000 (  7318 PWs)   bands (ev):

    -6.9242  -6.9242  -5.8315  -5.8315  -5.5293  -5.5293  -4.4459  -4.4459
    -3.4302  -3.4302  -2.3623  -2.3623  -0.5725  -0.5725   0.3963   0.3963

          k =-0.5000-0.5000 0.0000 (  7340 PWs)   bands (ev):

    -6.4054  -6.4054  -6.4054  -6.4054  -5.0268  -5.0268  -5.0268  -5.0268
    -2.9256  -2.9256  -2.9256  -2.9256  -0.1043  -0.1043  -0.1043  -0.1043

     the Fermi energy is    -0.1597 ev

!    total energy              =     -99.57984310 Ry
     Harris-Foulkes estimate   =     -99.57984310 Ry
     estimated scf accuracy    <          3.3E-09 Ry

     The total energy is the sum of the following terms:

     one-electron contribution =    -398.40358847 Ry
     hartree contribution      =     204.00788560 Ry
     xc contribution           =     -79.83578299 Ry
     ewald contribution        =     174.65143280 Ry
     smearing contrib. (-TS)   =       0.00020998 Ry

     convergence has been achieved in  10 iterations

     Forces acting on atoms (Ry/au):

     atom    1 type  1   force =     0.00000000    0.00000000   -0.00471917
     atom    2 type  1   force =     0.00000000    0.00000000   -0.00471918
     atom    3 type  1   force =     0.00000000    0.00000000    0.00035357
     atom    4 type  1   force =     0.00000000    0.00000000    0.00035357
     atom    5 type  1   force =     0.00000000    0.00000000   -0.00035346
     atom    6 type  1   force =     0.00000000    0.00000000   -0.00035346
     atom    7 type  1   force =     0.00000000    0.00000000    0.00471906
     atom    8 type  1   force =     0.00000000    0.00000000    0.00471906

     Total force =     0.009465     Total SCF correction =     0.000088


     entering subroutine stress ...

          total   stress  (Ry/bohr**3)                   (kbar)     P=   -9.12
  -0.00010543   0.00000000   0.00000000        -15.51      0.00      0.00
   0.00000000  -0.00010543   0.00000000          0.00    -15.51      0.00
   0.00000000   0.00000000   0.00002487          0.00      0.00      3.66


     number of scf cycles    =   3
     number of bfgs steps    =   2

     energy   old            =     -99.5797212015 Ry
     energy   new            =     -99.5798430987 Ry

     CASE: energy  _new < energy  _old

     new trust radius        =       0.0090443198 bohr
     new conv_thr            =       0.0000000122 Ry


ATOMIC_POSITIONS (crystal)
Al       0.000000000   0.000000000  -0.000450460
Al       0.500000000   0.500000000  -0.000450460
Al       0.500000000   0.000000000   0.083409799
Al       0.000000000   0.500000000   0.083409799
Al       0.000000000   0.000000000   0.166590203
Al       0.500000000   0.500000000   0.166590205
Al       0.500000000   0.000000000   0.250450457
Al       0.000000000   0.500000000   0.250450457



     Writing output data file Al_100_2_4.save
     NEW-OLD atomic charge density approx. for the potential

     negative rho (up, down):  3.485E-07 0.000E+00

     total cpu time spent up to now is      645.8 secs

     per-process dynamical memory:   135.6 Mb

     Self-consistent Calculation

     iteration #  1     ecut=    30.00 Ry     beta=0.30
     Davidson diagonalization with overlap
     ethr =  1.00E-06,  avg # of iterations =  3.0

     Threshold (ethr) on eigenvalues was too large:
     Diagonalizing with lowered threshold

     Davidson diagonalization with overlap
     ethr =  7.65E-08,  avg # of iterations =  1.6

     negative rho (up, down):  9.724E-08 0.000E+00

     total cpu time spent up to now is      689.3 secs

     total energy              =     -99.58000571 Ry
     Harris-Foulkes estimate   =     -99.58000732 Ry
     estimated scf accuracy    <       0.00001863 Ry

     iteration #  2     ecut=    30.00 Ry     beta=0.30
     Davidson diagonalization with overlap
     ethr =  7.76E-08,  avg # of iterations =  1.0

     negative rho (up, down):  1.415E-06 0.000E+00

     total cpu time spent up to now is      707.5 secs

     total energy              =     -99.58000170 Ry
     Harris-Foulkes estimate   =     -99.58000588 Ry
     estimated scf accuracy    <       0.00001181 Ry

     iteration #  3     ecut=    30.00 Ry     beta=0.30
     Davidson diagonalization with overlap
     ethr =  4.92E-08,  avg # of iterations =  2.0

     negative rho (up, down):  5.125E-07 0.000E+00

     total cpu time spent up to now is      728.3 secs

     total energy              =     -99.58000407 Ry
     Harris-Foulkes estimate   =     -99.58000437 Ry
     estimated scf accuracy    <       0.00000190 Ry

     iteration #  4     ecut=    30.00 Ry     beta=0.30
     Davidson diagonalization with overlap
     ethr =  7.94E-09,  avg # of iterations =  1.0

     negative rho (up, down):  3.260E-07 0.000E+00

     total cpu time spent up to now is      746.5 secs

     total energy              =     -99.58000410 Ry
     Harris-Foulkes estimate   =     -99.58000416 Ry
     estimated scf accuracy    <       0.00000056 Ry

     iteration #  5     ecut=    30.00 Ry     beta=0.30
     Davidson diagonalization with overlap
     ethr =  2.34E-09,  avg # of iterations =  2.0

     negative rho (up, down):  4.637E-08 0.000E+00

     total cpu time spent up to now is      766.3 secs

     total energy              =     -99.58000410 Ry
     Harris-Foulkes estimate   =     -99.58000414 Ry
     estimated scf accuracy    <       0.00000008 Ry

     iteration #  6     ecut=    30.00 Ry     beta=0.30
     Davidson diagonalization with overlap
     ethr =  3.42E-10,  avg # of iterations =  2.9

     negative rho (up, down):  1.978E-08 0.000E+00

     total cpu time spent up to now is      788.5 secs

     total energy              =     -99.58000414 Ry
     Harris-Foulkes estimate   =     -99.58000414 Ry
     estimated scf accuracy    <       0.00000011 Ry

     iteration #  7     ecut=    30.00 Ry     beta=0.30
     Davidson diagonalization with overlap
     ethr =  3.42E-10,  avg # of iterations =  1.0

     total cpu time spent up to now is      805.2 secs

     total energy              =     -99.58000411 Ry
     Harris-Foulkes estimate   =     -99.58000414 Ry
     estimated scf accuracy    <       0.00000012 Ry

     iteration #  8     ecut=    30.00 Ry     beta=0.30
     Davidson diagonalization with overlap
     ethr =  3.42E-10,  avg # of iterations =  1.0

     total cpu time spent up to now is      821.5 secs

     total energy              =     -99.58000411 Ry
     Harris-Foulkes estimate   =     -99.58000411 Ry
     estimated scf accuracy    <       0.00000003 Ry

     iteration #  9     ecut=    30.00 Ry     beta=0.30
     Davidson diagonalization with overlap
     ethr =  1.45E-10,  avg # of iterations =  1.0

     total cpu time spent up to now is      839.0 secs

     total energy              =     -99.58000411 Ry
     Harris-Foulkes estimate   =     -99.58000411 Ry
     estimated scf accuracy    <       0.00000005 Ry

     iteration # 10     ecut=    30.00 Ry     beta=0.30
     Davidson diagonalization with overlap
     ethr =  1.45E-10,  avg # of iterations =  1.0

     total cpu time spent up to now is      855.3 secs

     total energy              =     -99.58000411 Ry
     Harris-Foulkes estimate   =     -99.58000411 Ry
     estimated scf accuracy    <       0.00000002 Ry

     iteration # 11     ecut=    30.00 Ry     beta=0.30
     Davidson diagonalization with overlap
     ethr =  9.69E-11,  avg # of iterations =  1.0

     total cpu time spent up to now is      870.8 secs

     End of self-consistent calculation

          k = 0.0000 0.0000 0.0000 (  7343 PWs)   bands (ev):

   -10.8949  -9.4853  -7.3299  -4.4668  -2.6391  -2.6391  -2.1401  -1.3350
    -1.3350  -1.2664  -1.2664   0.1833   0.1833   0.6739   0.6739   1.3254

          k = 0.0000 0.0625 0.0000 (  7359 PWs)   bands (ev):

   -10.8593  -9.4499  -7.2950  -4.4324  -3.2039  -2.6063  -2.1072  -1.8836
    -1.3020  -1.2060  -0.6532   0.1287   0.2682   0.7067   0.7636   1.3578

          k = 0.0000 0.1250 0.0000 (  7353 PWs)   bands (ev):

   -10.7522  -9.3437  -7.1899  -4.3281  -4.1035  -2.7586  -2.5077  -2.0076
    -1.2034  -1.1016  -0.6994   0.1996   0.5716   0.8049   1.4546   1.7680

          k = 0.0000 0.1875 0.0000 (  7357 PWs)   bands (ev):

   -10.5739  -9.1667  -7.0149  -5.0003  -4.1546  -3.6409  -2.3436  -1.8417
    -1.5625  -1.0394  -0.9328   0.4465   0.9681   1.1691   1.6123   1.6864

          k = 0.0000 0.2500 0.0000 (  7359 PWs)   bands (ev):

   -10.3246  -8.9194  -6.7703  -5.8493  -4.4805  -3.9123  -2.3875  -2.1135
    -1.6096  -0.8099  -0.7051   0.4120   0.6847   1.1964   1.8204   2.0912

          k = 0.0000 0.3125 0.0000 (  7313 PWs)   bands (ev):

   -10.0047  -8.6019  -6.6400  -6.4562  -5.2637  -3.6016  -3.1590  -1.8184
    -1.3120  -0.5396  -0.5146  -0.1878   0.9627   1.3357   1.4910   1.8889

          k = 0.0000 0.3750 0.0000 (  7316 PWs)   bands (ev):

    -9.6147  -8.2149  -7.3680  -6.0736  -5.9856  -3.8711  -3.2235  -1.4566
    -1.0789  -0.9493  -0.1532   0.0318   0.6457   1.0284   1.5199   1.8502

          k = 0.0000 0.4375 0.0000 (  7318 PWs)   bands (ev):

    -9.1552  -8.0308  -7.7589  -6.6433  -5.6229  -4.5205  -2.7794  -1.7008
    -1.0298  -0.5228   0.0214   0.2733   0.4513   0.5066   1.3225   1.4611

          k = 0.0000-0.5000 0.0000 (  7322 PWs)   bands (ev):

    -8.6269  -8.6269  -7.2347  -7.2347  -5.1047  -5.1047  -2.2707  -2.2707
    -0.5371  -0.5371  -0.0348  -0.0348   0.7652   0.7652   0.9355   0.9355

          k = 0.0625 0.0625 0.0000 (  7351 PWs)   bands (ev):

   -10.8236  -9.4145  -7.2600  -4.3975  -3.1711  -3.1711  -2.0739  -1.8413
    -1.8413  -0.5936  -0.5936   0.1906   0.1906   0.8105   0.8105   1.3898

          k = 0.0625 0.1250 0.0000 (  7362 PWs)   bands (ev):

   -10.7165  -9.3083  -7.1549  -4.2934  -4.0699  -3.0770  -2.7136  -1.9744
    -1.7393  -0.6628  -0.4851   0.2885   0.4526   0.9422   1.4835   1.8466

          k = 0.0625 0.1875 0.0000 (  7372 PWs)   bands (ev):

   -10.5383  -9.1314  -6.9800  -4.9661  -4.1200  -3.6096  -2.8977  -1.8086
    -1.5867  -1.5136  -0.3194   0.4381   1.0251   1.2671   1.6253   1.7272

          k = 0.0625 0.2500 0.0000 (  7355 PWs)   bands (ev):

   -10.2891  -8.8841  -6.7354  -5.8148  -4.4468  -3.8778  -2.6665  -2.3544
    -1.5768  -1.3384  -0.1137   0.4040   0.7775   1.2665   1.5008   1.9599

          k = 0.0625 0.3125 0.0000 (  7313 PWs)   bands (ev):

    -9.9692  -8.5667  -6.6053  -6.4214  -5.2295  -3.5672  -3.1253  -2.3676
    -1.2795  -1.0404  -0.3710   0.2777   0.8016   1.0142   1.4983   1.9570

          k = 0.0625 0.3750 0.0000 (  7311 PWs)   bands (ev):

    -9.5793  -8.1798  -7.3332  -6.0389  -5.9511  -3.8370  -3.1896  -2.0043
    -1.0295  -0.9176  -0.6777   0.1192   0.6190   1.1487   1.3665   1.4426

          k = 0.0625 0.4375 0.0000 (  7313 PWs)   bands (ev):

    -9.1199  -7.9958  -7.7239  -6.6085  -5.5882  -4.4861  -2.7460  -1.7026
    -1.5267  -0.5046  -0.4936  -0.2536   0.5653   0.8220   1.0398   1.7877

          k = 0.0625-0.5000 0.0000 (  7318 PWs)   bands (ev):

    -8.5918  -8.5918  -7.1999  -7.1999  -5.0704  -5.0704  -2.2393  -2.2393
    -1.0642  -1.0642  -0.0305  -0.0305   0.2889   0.2889   1.5167   1.5167

          k = 0.1250 0.1250 0.0000 (  7361 PWs)   bands (ev):

   -10.6095  -9.2021  -7.0500  -4.1894  -3.9696  -3.9696  -2.6159  -2.6159
    -1.8752  -0.5648  -0.5648   0.5855   0.5855   1.5576   1.9568   1.9568

          k = 0.1250 0.1875 0.0000 (  7350 PWs)   bands (ev):

   -10.4314  -9.0254  -6.8752  -4.8636  -4.0163  -3.8118  -3.4876  -2.4486
    -1.7096  -1.4281  -0.4063   0.7385   1.3906   1.4131   1.7349   1.8941

          k = 0.1250 0.2500 0.0000 (  7352 PWs)   bands (ev):

   -10.1824  -8.7783  -6.6308  -5.7116  -4.3476  -3.7745  -3.5544  -2.2682
    -2.1977  -1.4785  -0.2061   0.5549   0.6883   1.0506   2.0308   2.0348

          k = 0.1250 0.3125 0.0000 (  7331 PWs)   bands (ev):

    -9.8628  -8.4612  -6.5014  -6.3171  -5.1271  -3.4646  -3.2539  -3.0243
    -1.9108  -1.1825  -0.3104  -0.0526   0.2397   1.2845   1.3182   1.8616

          k = 0.1250 0.3750 0.0000 (  7303 PWs)   bands (ev):

    -9.4731  -8.0745  -7.2287  -5.9348  -5.8475  -3.7349  -3.0879  -2.8853
    -1.5440  -0.9374  -0.8241  -0.7414   0.5422   0.5999   1.2549   1.6716

          k = 0.1250 0.4375 0.0000 (  7305 PWs)   bands (ev):

    -9.0141  -7.8908  -7.6190  -6.5043  -5.4846  -4.3832  -2.6470  -2.4530
    -1.5556  -1.3690  -1.1129  -0.4266   0.0015   0.6610   0.9580   1.9842

          k = 0.1250-0.5000 0.0000 (  7302 PWs)   bands (ev):

    -8.4864  -8.4864  -7.0953  -7.0953  -4.9670  -4.9670  -2.1659  -2.1659
    -1.9090  -1.9090  -0.6252  -0.6252   0.1253   0.1253   1.4433   1.4433

          k = 0.1875 0.1875 0.0000 (  7341 PWs)   bands (ev):

   -10.2535  -8.8488  -6.7005  -4.6943  -4.6943  -3.8435  -3.3286  -3.3286
    -1.5447  -1.2648  -1.2648   0.6392   1.4713   1.4713   1.9859   1.9975

          k = 0.1875 0.2500 0.0000 (  7334 PWs)   bands (ev):

   -10.0048  -8.6020  -6.4564  -5.5398  -4.4685  -4.1536  -3.6025  -3.0930
    -2.0861  -1.3152  -1.0405  -0.1598   0.7203   1.1821   1.6765   2.2088

          k = 0.1875 0.3125 0.0000 (  7323 PWs)   bands (ev):

    -9.6856  -8.2853  -6.3284  -6.1433  -4.9586  -4.1386  -3.2941  -2.8615
    -2.7826  -1.0235  -0.9127  -0.7789   0.0199   0.4344   1.7464   2.2956

          k = 0.1875 0.3750 0.0000 (  7302 PWs)   bands (ev):

    -9.2964  -7.8991  -7.0547  -5.7614  -5.6756  -3.7684  -3.5651  -2.9203
    -2.4180  -1.6066  -0.8389  -0.6921  -0.2437  -0.2286   1.3596   1.7581

          k = 0.1875 0.4375 0.0000 (  7292 PWs)   bands (ev):

    -8.8379  -7.7161  -7.4442  -6.3313  -5.3118  -4.2124  -3.3300  -2.5021
    -2.2183  -1.9819  -1.4048  -0.9289  -0.1985   0.1209   0.8041   1.1535

          k = 0.1875-0.5000 0.0000 (  7310 PWs)   bands (ev):

    -8.3108  -8.3108  -6.9212  -6.9212  -4.7952  -4.7952  -2.8282  -2.8282
    -1.9600  -1.9600  -1.4824  -1.4824   0.2709   0.2709   0.6025   0.6025

          k = 0.2500 0.2500 0.0000 (  7315 PWs)   bands (ev):

    -9.7564  -8.3556  -6.2128  -5.3005  -5.3005  -3.9277  -3.9277  -3.3628
    -1.8552  -1.8552  -1.0897  -0.9721   0.3767   0.9317   0.9317   2.2352

          k = 0.2500 0.3125 0.0000 (  7328 PWs)   bands (ev):

    -9.4379  -8.0395  -6.0867  -5.9003  -5.0055  -4.6946  -3.6228  -3.0574
    -2.6205  -1.7305  -1.5634  -0.8252  -0.3491   0.2114   1.1726   1.6395

          k = 0.2500 0.3750 0.0000 (  7276 PWs)   bands (ev):

    -9.0493  -7.6540  -6.8114  -5.5191  -5.4375  -4.6048  -3.3297  -3.2477
    -2.7046  -2.4109  -1.2369  -1.1180  -0.4318  -0.3945   0.9713   1.2931

          k = 0.2500 0.4375 0.0000 (  7312 PWs)   bands (ev):

    -8.5916  -7.4718  -7.1999  -6.0895  -5.0706  -4.1651  -3.9737  -3.0865
    -2.8101  -2.2320  -1.7378  -1.2419  -0.6230   0.0082   0.3550   0.9667

          k = 0.2500-0.5000 0.0000 (  7314 PWs)   bands (ev):

    -8.0654  -8.0654  -6.6779  -6.6779  -4.5549  -4.5549  -3.6572  -3.6572
    -2.3054  -2.3054  -1.7428  -1.7428  -0.1929  -0.1929   0.4757   0.4757

          k = 0.3125 0.3125 0.0000 (  7326 PWs)   bands (ev):

    -9.1199  -7.7240  -5.7774  -5.7774  -5.5886  -4.4001  -4.4001  -2.7727
    -2.4761  -2.3210  -2.3210  -1.1821  -0.4605   0.4820   0.4820   0.9095

          k = 0.3125 0.3750 0.0000 (  7306 PWs)   bands (ev):

    -8.7323  -7.3395  -6.4995  -5.4122  -5.2085  -5.1039  -4.0257  -3.2169
    -3.0244  -2.3685  -1.9614  -1.8672  -0.1800  -0.1235   0.2291   0.7851

          k = 0.3125 0.4375 0.0000 (  7314 PWs)   bands (ev):

    -8.2756  -7.1583  -6.8866  -5.7816  -4.9422  -4.7612  -3.8558  -3.6679
    -3.5833  -2.5021  -1.9466  -1.5686  -0.7601  -0.3843   0.2783   0.9660

          k = 0.3125-0.5000 0.0000 (  7294 PWs)   bands (ev):

    -7.7506  -7.7506  -6.3662  -6.3662  -4.4327  -4.4327  -4.2470  -4.2470
    -3.0749  -3.0749  -1.5125  -1.5125  -0.8804  -0.8804   0.7032   0.7032

          k = 0.3750 0.3750 0.0000 (  7312 PWs)   bands (ev):

    -8.3458  -6.9563  -6.1202  -6.1202  -4.8300  -4.7400  -4.7400  -3.9220
    -2.6564  -2.6564  -2.5679  -2.0146  -0.4488   0.1556   0.1556   0.2124

          k = 0.3750 0.4375 0.0000 (  7301 PWs)   bands (ev):

    -7.8902  -6.7761  -6.5049  -5.6848  -5.3787  -4.5672  -4.3841  -4.2964
    -3.2953  -3.2084  -2.2286  -1.6481  -1.0103  -0.4438   0.5244   0.5714

          k = 0.3750-0.5000 0.0000 (  7308 PWs)   bands (ev):

    -7.3667  -7.3667  -5.9884  -5.9884  -5.1457  -5.1457  -3.8720  -3.8720
    -3.7852  -3.7852  -1.7689  -1.7689  -0.9587  -0.9587   0.7690   0.7690

          k = 0.4375 0.4375 0.0000 (  7306 PWs)   bands (ev):

    -7.4363  -6.3268  -6.3268  -6.0574  -5.2138  -4.9448  -4.9448  -3.9402
    -3.8527  -2.8585  -2.8585  -1.8360  -1.0250  -0.0415  -0.0415   0.7033

          k = 0.4375-0.5000 0.0000 (  7318 PWs)   bands (ev):

    -6.9148  -6.9148  -5.8217  -5.8217  -5.5162  -5.5162  -4.4324  -4.4324
    -3.4308  -3.4308  -2.3629  -2.3629  -0.5764  -0.5764   0.3933   0.3933

          k =-0.5000-0.5000 0.0000 (  7340 PWs)   bands (ev):

    -6.3959  -6.3959  -6.3959  -6.3959  -5.0133  -5.0133  -5.0133  -5.0133
    -2.9262  -2.9262  -2.9262  -2.9262  -0.1079  -0.1079  -0.1079  -0.1079

     the Fermi energy is    -0.1575 ev

!    total energy              =     -99.58000412 Ry
     Harris-Foulkes estimate   =     -99.58000411 Ry
     estimated scf accuracy    <       0.00000001 Ry

     The total energy is the sum of the following terms:

     one-electron contribution =    -397.88234814 Ry
     hartree contribution      =     203.74797469 Ry
     xc contribution           =     -79.83106166 Ry
     ewald contribution        =     174.38521478 Ry
     smearing contrib. (-TS)   =       0.00021621 Ry

     convergence has been achieved in  11 iterations

     Forces acting on atoms (Ry/au):

     atom    1 type  1   force =     0.00000000    0.00000000   -0.00417225
     atom    2 type  1   force =     0.00000000    0.00000000   -0.00417225
     atom    3 type  1   force =     0.00000000    0.00000000   -0.00025739
     atom    4 type  1   force =     0.00000000    0.00000000   -0.00025739
     atom    5 type  1   force =     0.00000000    0.00000000    0.00025737
     atom    6 type  1   force =     0.00000000    0.00000000    0.00025737
     atom    7 type  1   force =     0.00000000    0.00000000    0.00417227
     atom    8 type  1   force =     0.00000000    0.00000000    0.00417227

     Total force =     0.008360     Total SCF correction =     0.000161


     entering subroutine stress ...

          total   stress  (Ry/bohr**3)                   (kbar)     P=   -9.39
  -0.00010666   0.00000000   0.00000000        -15.69      0.00      0.00
   0.00000000  -0.00010666   0.00000000          0.00    -15.69      0.00
   0.00000000   0.00000000   0.00002178          0.00      0.00      3.20


     number of scf cycles    =   4
     number of bfgs steps    =   3

     energy   old            =     -99.5798430987 Ry
     energy   new            =     -99.5800041248 Ry

     CASE: energy  _new < energy  _old

     new trust radius        =       0.0135664797 bohr
     new conv_thr            =       0.0000000161 Ry


ATOMIC_POSITIONS (crystal)
Al       0.000000000   0.000000000  -0.000747775
Al       0.500000000   0.500000000  -0.000747775
Al       0.500000000   0.000000000   0.083425862
Al       0.000000000   0.500000000   0.083425862
Al       0.000000000   0.000000000   0.166574153
Al       0.500000000   0.500000000   0.166574156
Al       0.500000000   0.000000000   0.250747758
Al       0.000000000   0.500000000   0.250747758



     Writing output data file Al_100_2_4.save
     NEW-OLD atomic charge density approx. for the potential

     negative rho (up, down):  9.046E-07 0.000E+00

     total cpu time spent up to now is      878.6 secs

     per-process dynamical memory:   135.6 Mb

     Self-consistent Calculation

     iteration #  1     ecut=    30.00 Ry     beta=0.30
     Davidson diagonalization with overlap
     ethr =  1.00E-06,  avg # of iterations =  3.0

     negative rho (up, down):  2.017E-07 0.000E+00

     total cpu time spent up to now is      907.4 secs

     total energy              =     -99.58020917 Ry
     Harris-Foulkes estimate   =     -99.58021173 Ry
     estimated scf accuracy    <       0.00002809 Ry

     iteration #  2     ecut=    30.00 Ry     beta=0.30
     Davidson diagonalization with overlap
     ethr =  1.17E-07,  avg # of iterations =  1.0

     negative rho (up, down):  9.927E-07 0.000E+00

     total cpu time spent up to now is      924.3 secs

     total energy              =     -99.58020340 Ry
     Harris-Foulkes estimate   =     -99.58021005 Ry
     estimated scf accuracy    <       0.00001791 Ry

     iteration #  3     ecut=    30.00 Ry     beta=0.30
     Davidson diagonalization with overlap
     ethr =  7.46E-08,  avg # of iterations =  2.0

     negative rho (up, down):  1.994E-07 0.000E+00

     total cpu time spent up to now is      944.3 secs

     total energy              =     -99.58020718 Ry
     Harris-Foulkes estimate   =     -99.58020764 Ry
     estimated scf accuracy    <       0.00000275 Ry

     iteration #  4     ecut=    30.00 Ry     beta=0.30
     Davidson diagonalization with overlap
     ethr =  1.15E-08,  avg # of iterations =  1.6

     negative rho (up, down):  2.892E-08 0.000E+00

     total cpu time spent up to now is      961.6 secs

     total energy              =     -99.58020729 Ry
     Harris-Foulkes estimate   =     -99.58020734 Ry
     estimated scf accuracy    <       0.00000071 Ry

     iteration #  5     ecut=    30.00 Ry     beta=0.30
     Davidson diagonalization with overlap
     ethr =  2.97E-09,  avg # of iterations =  1.8

     total cpu time spent up to now is      978.6 secs

     total energy              =     -99.58020730 Ry
     Harris-Foulkes estimate   =     -99.58020734 Ry
     estimated scf accuracy    <       0.00000013 Ry

     iteration #  6     ecut=    30.00 Ry     beta=0.30
     Davidson diagonalization with overlap
     ethr =  5.31E-10,  avg # of iterations =  3.0

     total cpu time spent up to now is      999.0 secs

     total energy              =     -99.58020733 Ry
     Harris-Foulkes estimate   =     -99.58020733 Ry
     estimated scf accuracy    <       0.00000005 Ry

     iteration #  7     ecut=    30.00 Ry     beta=0.30
     Davidson diagonalization with overlap
     ethr =  1.89E-10,  avg # of iterations =  1.0

     total cpu time spent up to now is     1015.7 secs

     total energy              =     -99.58020732 Ry
     Harris-Foulkes estimate   =     -99.58020733 Ry
     estimated scf accuracy    <       0.00000006 Ry

     iteration #  8     ecut=    30.00 Ry     beta=0.30
     Davidson diagonalization with overlap
     ethr =  1.89E-10,  avg # of iterations =  2.0

     total cpu time spent up to now is     1033.6 secs

     End of self-consistent calculation

          k = 0.0000 0.0000 0.0000 (  7343 PWs)   bands (ev):

   -10.8809  -9.4670  -7.3310  -4.4739  -2.6244  -2.6244  -2.1478  -1.3143
    -1.3143  -1.2522  -1.2522   0.2005   0.2006   0.6730   0.6730   1.3104

          k = 0.0000 0.0625 0.0000 (  7359 PWs)   bands (ev):

   -10.8453  -9.4316  -7.2961  -4.4395  -3.1895  -2.5917  -2.1149  -1.8638
    -1.2813  -1.1918  -0.6385   0.1341   0.2787   0.7058   0.7819   1.3429

          k = 0.0000 0.1250 0.0000 (  7353 PWs)   bands (ev):

   -10.7382  -9.3254  -7.1909  -4.3351  -4.0893  -2.7392  -2.4930  -2.0152
    -1.1827  -1.0875  -0.6992   0.2156   0.5861   0.8040   1.4399   1.7812

          k = 0.0000 0.1875 0.0000 (  7357 PWs)   bands (ev):

   -10.5599  -9.1484  -7.0159  -4.9861  -4.1616  -3.6219  -2.3290  -1.8493
    -1.5628  -1.0187  -0.9186   0.4631   0.9672   1.1626   1.5981   1.7006

          k = 0.0000 0.2500 0.0000 (  7359 PWs)   bands (ev):

   -10.3106  -8.9011  -6.7713  -5.8352  -4.4617  -3.9193  -2.3879  -2.0988
    -1.6171  -0.7891  -0.6909   0.4051   0.7012   1.1955   1.8074   2.1061

          k = 0.0000 0.3125 0.0000 (  7313 PWs)   bands (ev):

    -9.9907  -8.5835  -6.6259  -6.4572  -5.2450  -3.6085  -3.1596  -1.8037
    -1.3194  -0.5329  -0.4938  -0.1873   0.9781   1.3505   1.4901   1.8846

          k = 0.0000 0.3750 0.0000 (  7316 PWs)   bands (ev):

    -9.6007  -8.1965  -7.3539  -6.0745  -5.9670  -3.8718  -3.2304  -1.4419
    -1.0842  -0.9566  -0.1324   0.0442   0.6604   1.0276   1.5315   1.8492

          k = 0.0000 0.4375 0.0000 (  7318 PWs)   bands (ev):

    -9.1411  -8.0168  -7.7405  -6.6248  -5.6237  -4.5213  -2.7861  -1.7071
    -1.0151  -0.5299   0.0362   0.2942   0.4646   0.5003   1.3435   1.4745

          k = 0.0000-0.5000 0.0000 (  7322 PWs)   bands (ev):

    -8.6129  -8.6129  -7.2163  -7.2163  -5.1056  -5.1056  -2.2773  -2.2773
    -0.5223  -0.5223  -0.0416  -0.0416   0.7861   0.7861   0.9491   0.9491

          k = 0.0625 0.0625 0.0000 (  7351 PWs)   bands (ev):

   -10.8096  -9.3962  -7.2610  -4.4046  -3.1567  -3.1567  -2.0816  -1.8215
    -1.8215  -0.5792  -0.5792   0.1904   0.1904   0.8278   0.8278   1.3750

          k = 0.0625 0.1250 0.0000 (  7362 PWs)   bands (ev):

   -10.7025  -9.2900  -7.1559  -4.3004  -4.0556  -3.0624  -2.6944  -1.9821
    -1.7194  -0.6631  -0.4708   0.2879   0.4674   0.9591   1.4690   1.8641

          k = 0.0625 0.1875 0.0000 (  7372 PWs)   bands (ev):

   -10.5243  -9.1131  -6.9810  -4.9519  -4.1270  -3.5906  -2.8832  -1.8161
    -1.5704  -1.5105  -0.3050   0.4372   1.0427   1.2606   1.6125   1.7415

[...]
     atom    3 type  1   force =     0.00000000    0.00000000   -0.00161661
     atom    4 type  1   force =     0.00000000    0.00000000   -0.00161661
     atom    5 type  1   force =     0.00000000    0.00000000    0.00161643
     atom    6 type  1   force =     0.00000000    0.00000000    0.00161640
     atom    7 type  1   force =     0.00000000    0.00000000   -0.00075868
     atom    8 type  1   force =     0.00000000    0.00000000   -0.00075868

     Total force =     0.003571     Total SCF correction =     0.000084


     entering subroutine stress ...

          total   stress  (Ry/bohr**3)                   (kbar)     P=  -12.98
  -0.00012340   0.00000000   0.00000000        -18.15      0.00      0.00
   0.00000000  -0.00012340   0.00000000          0.00    -18.15      0.00
   0.00000000   0.00000000  -0.00001781          0.00      0.00     -2.62


     number of scf cycles    =  10
     number of bfgs steps    =   9

     energy   old            =     -99.5808112596 Ry
     energy   new            =     -99.5809079424 Ry

     CASE: energy  _new < energy  _old

     new trust radius        =       0.0083044234 bohr
     new conv_thr            =       0.0000000100 Ry


ATOMIC_POSITIONS (crystal)
Al       0.000000000   0.000000000  -0.003067852
Al       0.500000000   0.500000000  -0.003067852
Al       0.500000000   0.000000000   0.082601780
Al       0.000000000   0.500000000   0.082601780
Al       0.000000000   0.000000000   0.167398243
Al       0.500000000   0.500000000   0.167398248
Al       0.500000000   0.000000000   0.253067827
Al       0.000000000   0.500000000   0.253067827



     Writing output data file Al_100_2_4.save
     NEW-OLD atomic charge density approx. for the potential

     negative rho (up, down):  1.246E-07 0.000E+00

     total cpu time spent up to now is     2203.2 secs

     per-process dynamical memory:   135.6 Mb

     Self-consistent Calculation

     iteration #  1     ecut=    30.00 Ry     beta=0.30
     Davidson diagonalization with overlap
     ethr =  1.00E-06,  avg # of iterations =  3.3

     negative rho (up, down):  3.553E-08 0.000E+00

     total cpu time spent up to now is     2230.0 secs

     total energy              =     -99.58094444 Ry
     Harris-Foulkes estimate   =     -99.58094769 Ry
     estimated scf accuracy    <       0.00003415 Ry

     iteration #  2     ecut=    30.00 Ry     beta=0.30
     Davidson diagonalization with overlap
     ethr =  1.42E-07,  avg # of iterations =  1.2

     negative rho (up, down):  9.215E-07 0.000E+00

     total cpu time spent up to now is     2247.7 secs

     total energy              =     -99.58093757 Ry
     Harris-Foulkes estimate   =     -99.58094546 Ry
     estimated scf accuracy    <       0.00002108 Ry

     iteration #  3     ecut=    30.00 Ry     beta=0.30
     Davidson diagonalization with overlap
     ethr =  8.78E-08,  avg # of iterations =  2.4

     negative rho (up, down):  2.817E-07 0.000E+00

     total cpu time spent up to now is     2267.8 secs

     total energy              =     -99.58094205 Ry
     Harris-Foulkes estimate   =     -99.58094247 Ry
     estimated scf accuracy    <       0.00000246 Ry

     iteration #  4     ecut=    30.00 Ry     beta=0.30
     Davidson diagonalization with overlap
     ethr =  1.03E-08,  avg # of iterations =  1.6

     negative rho (up, down):  1.653E-07 0.000E+00

     total cpu time spent up to now is     2285.5 secs

     total energy              =     -99.58094226 Ry
     Harris-Foulkes estimate   =     -99.58094222 Ry
     estimated scf accuracy    <       0.00000064 Ry

     iteration #  5     ecut=    30.00 Ry     beta=0.30
     Davidson diagonalization with overlap
     ethr =  2.65E-09,  avg # of iterations =  1.0

     total cpu time spent up to now is     2301.5 secs

     total energy              =     -99.58094202 Ry
     Harris-Foulkes estimate   =     -99.58094227 Ry
     estimated scf accuracy    <       0.00000091 Ry

     iteration #  6     ecut=    30.00 Ry     beta=0.30
     Davidson diagonalization with overlap
     ethr =  2.65E-09,  avg # of iterations =  2.4

     total cpu time spent up to now is     2321.9 secs

     total energy              =     -99.58094219 Ry
     Harris-Foulkes estimate   =     -99.58094220 Ry
     estimated scf accuracy    <       0.00000018 Ry

     iteration #  7     ecut=    30.00 Ry     beta=0.30
     Davidson diagonalization with overlap
     ethr =  7.64E-10,  avg # of iterations =  1.0

     total cpu time spent up to now is     2338.3 secs

     total energy              =     -99.58094219 Ry
     Harris-Foulkes estimate   =     -99.58094219 Ry
     estimated scf accuracy    <       0.00000015 Ry

     iteration #  8     ecut=    30.00 Ry     beta=0.30
     Davidson diagonalization with overlap
     ethr =  6.15E-10,  avg # of iterations =  1.0

     total cpu time spent up to now is     2354.8 secs

     total energy              =     -99.58094218 Ry
     Harris-Foulkes estimate   =     -99.58094219 Ry
     estimated scf accuracy    <       0.00000014 Ry

     iteration #  9     ecut=    30.00 Ry     beta=0.30
     Davidson diagonalization with overlap
     ethr =  5.71E-10,  avg # of iterations =  1.0

     total cpu time spent up to now is     2370.8 secs

     total energy              =     -99.58094218 Ry
     Harris-Foulkes estimate   =     -99.58094218 Ry
     estimated scf accuracy    <       0.00000003 Ry

     iteration # 10     ecut=    30.00 Ry     beta=0.30
     Davidson diagonalization with overlap
     ethr =  1.37E-10,  avg # of iterations =  1.8

     total cpu time spent up to now is     2386.7 secs

     End of self-consistent calculation

          k = 0.0000 0.0000 0.0000 (  7343 PWs)   bands (ev):

   -10.7429  -9.3810  -7.3122  -4.5310  -2.4793  -2.4793  -2.2052  -1.2185
    -1.2185  -1.1111  -1.1111   0.2817   0.2817   0.7037   0.7037   1.1846

          k = 0.0000 0.0625 0.0000 (  7359 PWs)   bands (ev):

   -10.7072  -9.3456  -7.2772  -4.4964  -3.0465  -2.4465  -2.1723  -1.7680
    -1.1855  -1.0553  -0.4945   0.1803   0.3390   0.7366   0.8686   1.2173

          k = 0.0000 0.1250 0.0000 (  7353 PWs)   bands (ev):

   -10.6001  -9.2393  -7.1720  -4.3919  -3.9478  -2.6470  -2.3478  -2.0724
    -1.0868  -0.9501  -0.6703   0.3228   0.6989   0.8348   1.3156   1.8195

          k = 0.0000 0.1875 0.0000 (  7357 PWs)   bands (ev):

   -10.4218  -9.0623  -6.9969  -4.8456  -4.2182  -3.5314  -2.1837  -1.9061
    -1.5369  -0.9227  -0.7802   0.5479   0.9980   1.1132   1.4772   1.8383

          k = 0.0000 0.2500 0.0000 (  7359 PWs)   bands (ev):

   -10.1725  -8.8149  -6.7521  -5.6953  -4.3724  -3.9755  -2.3638  -1.9534
    -1.6734  -0.6930  -0.5508   0.3493   0.7837   1.2263   1.6956   2.2534

          k = 0.0000 0.3125 0.0000 (  7313 PWs)   bands (ev):

    -9.8525  -8.4972  -6.4864  -6.4377  -5.1566  -3.6641  -3.1367  -1.6581
    -1.3750  -0.4912  -0.3976  -0.1464   1.0546   1.4976   1.5209   1.8427

          k = 0.0000 0.3750 0.0000 (  7316 PWs)   bands (ev):

    -9.4623  -8.1100  -7.2148  -6.0548  -5.8792  -3.8498  -3.2853  -1.2961
    -1.1268  -1.0111  -0.0361   0.1687   0.8072   1.0096   1.5819   1.8800

          k = 0.0000 0.4375 0.0000 (  7318 PWs)   bands (ev):

    -9.0027  -7.8780  -7.6538  -6.5374  -5.6036  -4.5000  -2.8400  -1.7569
    -0.8691  -0.5831   0.1827   0.3906   0.4533   0.5962   1.4402   1.6063

          k = 0.0000-0.5000 0.0000 (  7322 PWs)   bands (ev):

    -8.4743  -8.4743  -7.1292  -7.1292  -5.0849  -5.0849  -2.3297  -2.3297
    -0.3761  -0.3761  -0.0929  -0.0929   0.8827   0.8827   1.0832   1.0832

          k = 0.0625 0.0625 0.0000 (  7351 PWs)   bands (ev):

   -10.6715  -9.3102  -7.2422  -4.4615  -3.0135  -3.0135  -2.1389  -1.7277
    -1.7277  -0.4380  -0.4380   0.2206   0.2206   0.9094   0.9094   1.2500

          k = 0.0625 0.1250 0.0000 (  7362 PWs)   bands (ev):

   -10.5644  -9.2039  -7.1370  -4.3572  -3.9141  -2.9192  -2.6031  -2.0391
    -1.6260  -0.6362  -0.3302   0.3165   0.6109   1.0404   1.3465   1.9387

          k = 0.0625 0.1875 0.0000 (  7372 PWs)   bands (ev):

   -10.3861  -9.0270  -6.9619  -4.8113  -4.1835  -3.4994  -2.7412  -1.8729
    -1.5089  -1.4539  -0.1637   0.4642   1.1340   1.2072   1.5006   1.8766

          k = 0.0625 0.2500 0.0000 (  7355 PWs)   bands (ev):

   -10.1369  -8.7796  -6.7171  -5.6607  -4.3385  -3.9409  -2.5091  -2.3305
    -1.6405  -1.2262   0.0335   0.3688   0.7849   1.3691   1.5887   1.8956

          k = 0.0625 0.3125 0.0000 (  7313 PWs)   bands (ev):

    -9.8170  -8.4620  -6.4517  -6.4029  -5.1223  -3.6296  -3.1029  -2.2096
    -1.3422  -0.9278  -0.4095   0.4099   0.9592   1.0386   1.5624   1.9438

          k = 0.0625 0.3750 0.0000 (  7311 PWs)   bands (ev):

    -9.4269  -8.0749  -7.1800  -6.0201  -5.8447  -3.8156  -3.2512  -1.8457
    -1.0847  -0.9791  -0.5649   0.2777   0.7656   1.1020   1.3924   1.5567

          k = 0.0625 0.4375 0.0000 (  7313 PWs)   bands (ev):

    -8.9674  -7.8429  -7.6187  -6.5026  -5.5689  -4.4656  -2.8063  -1.7315
    -1.3980  -0.5530  -0.3469  -0.1429   0.5122   0.9349   1.1898   1.8137

          k = 0.0625-0.5000 0.0000 (  7318 PWs)   bands (ev):

    -8.4391  -8.4391  -7.0944  -7.0944  -5.0505  -5.0505  -2.2971  -2.2971
    -0.9081  -0.9081  -0.0762  -0.0762   0.3895   0.3895   1.6675   1.6675

          k = 0.1250 0.1250 0.0000 (  7361 PWs)   bands (ev):

   -10.4574  -9.0977  -7.0319  -4.2530  -3.8136  -3.8136  -2.5057  -2.5057
    -1.9397  -0.5388  -0.5388   0.7434   0.7434   1.4333   2.0581   2.0581

          k = 0.1250 0.1875 0.0000 (  7350 PWs)   bands (ev):

   -10.2793  -8.9209  -6.8570  -4.7086  -4.0796  -3.6554  -3.3791  -2.3380
    -1.7736  -1.4043  -0.3805   0.8926   1.3304   1.4707   1.8508   1.8905

          k = 0.1250 0.2500 0.0000 (  7352 PWs)   bands (ev):

   -10.0302  -8.6737  -6.6124  -5.5574  -4.2384  -3.8374  -3.3998  -2.2310
    -2.1017  -1.5419  -0.1830   0.5197   0.8433   1.1809   1.8950   2.1434

          k = 0.1250 0.3125 0.0000 (  7331 PWs)   bands (ev):

    -9.7106  -8.3564  -6.3478  -6.2985  -5.0197  -3.5267  -3.0981  -3.0015
    -1.8012  -1.2447  -0.3496   0.1044   0.2481   1.3964   1.4665   1.8200

          k = 0.1250 0.3750 0.0000 (  7303 PWs)   bands (ev):

    -9.3208  -7.9696  -7.0754  -5.9159  -5.7410  -3.7134  -3.1489  -2.7285
    -1.4339  -0.9937  -0.8842  -0.5853   0.5638   0.7104   1.2030   1.8232

          k = 0.1250 0.4375 0.0000 (  7305 PWs)   bands (ev):

    -8.8616  -7.7379  -7.5137  -6.3984  -5.4652  -4.3627  -2.7057  -2.2953
    -1.6161  -1.2150  -1.0028  -0.4742   0.1003   0.6054   0.9814   2.0049

          k = 0.1250-0.5000 0.0000 (  7302 PWs)   bands (ev):

    -8.3337  -8.3337  -6.9898  -6.9898  -4.9471  -4.9471  -2.2040  -2.2040
    -1.7751  -1.7751  -0.5193  -0.5193   0.0719   0.0719   1.4669   1.4669

          k = 0.1875 0.1875 0.0000 (  7341 PWs)   bands (ev):

   -10.1013  -8.7443  -6.6822  -4.5390  -4.5390  -3.9065  -3.2202  -3.2202
    -1.6081  -1.2406  -1.2406   0.7936   1.4306   1.4306   1.8363   2.1349

          k = 0.1875 0.2500 0.0000 (  7334 PWs)   bands (ev):

    -9.8526  -8.4973  -6.4379  -5.3854  -4.3130  -4.0464  -3.6649  -2.9840
    -2.0634  -1.3777  -1.0161  -0.0033   0.6643   1.2933   1.6251   2.0393

          k = 0.1875 0.3125 0.0000 (  7323 PWs)   bands (ev):

    -9.5333  -8.1805  -6.1746  -6.1246  -4.8502  -3.9849  -3.3554  -2.8331
    -2.6799  -1.0841  -0.7579  -0.7572  -0.0362   0.5440   1.7035   2.2246

          k = 0.1875 0.3750 0.0000 (  7302 PWs)   bands (ev):

    -9.1440  -7.7941  -6.9013  -5.7424  -5.5688  -3.6134  -3.5434  -2.9795
    -2.3092  -1.4533  -0.8811  -0.7405  -0.2382  -0.1308   1.3111   1.7769

          k = 0.1875 0.4375 0.0000 (  7292 PWs)   bands (ev):

    -8.6853  -7.5631  -7.3389  -6.2251  -5.2924  -4.1917  -3.1740  -2.5435
    -2.0826  -1.8728  -1.4631  -0.8252  -0.2518   0.1410   0.7497   1.1760

          k = 0.1875-0.5000 0.0000 (  7310 PWs)   bands (ev):

    -8.1581  -8.1581  -6.8156  -6.8156  -4.7752  -4.7752  -2.6710  -2.6710
    -2.0220  -2.0220  -1.3733  -1.3733   0.2139   0.2139   0.6247   0.6247

          k = 0.2500 0.2500 0.0000 (  7315 PWs)   bands (ev):

    -9.6041  -8.2508  -6.1941  -5.1458  -5.1458  -3.8204  -3.8204  -3.4243
    -1.8318  -1.8318  -1.1505  -0.8168   0.4860   0.8746   0.8746   2.1623

          k = 0.2500 0.3125 0.0000 (  7328 PWs)   bands (ev):

    -9.2855  -7.9345  -5.9327  -5.8814  -4.8505  -4.5882  -3.5150  -3.1170
    -2.5982  -1.5774  -1.5397  -0.8739  -0.2517   0.1516   1.1193   1.6577

          k = 0.2500 0.3750 0.0000 (  7276 PWs)   bands (ev):

    -8.8969  -7.5488  -6.6580  -5.4999  -5.3296  -4.4516  -3.3065  -3.1413
    -2.7478  -2.2742  -1.2169  -1.0153  -0.4894  -0.4478   0.9933   1.2493

          k = 0.2500 0.4375 0.0000 (  7312 PWs)   bands (ev):

    -8.4390  -7.3187  -7.0944  -5.9831  -5.0509  -4.0105  -3.9528  -2.9296
    -2.7019  -2.2946  -1.6293  -1.2851  -0.6186  -0.0495   0.3765   0.9171

          k = 0.2500-0.5000 0.0000 (  7314 PWs)   bands (ev):

    -7.9126  -7.9126  -6.5720  -6.5720  -4.5347  -4.5347  -3.5016  -3.5016
    -2.1968  -2.1968  -1.8018  -1.8018  -0.1736  -0.1736   0.4203   0.4203

          k = 0.3125 0.3125 0.0000 (  7326 PWs)   bands (ev):

    -8.9675  -7.6189  -5.6230  -5.6230  -5.5694  -4.2935  -4.2935  -2.8164
    -2.3390  -2.2981  -2.2981  -1.0797  -0.5138   0.4235   0.4235   0.9313

          k = 0.3125 0.3750 0.0000 (  7306 PWs)   bands (ev):

    -8.5797  -7.2342  -6.3458  -5.2574  -5.1890  -4.9982  -3.9188  -3.0601
    -3.0023  -2.4315  -1.9383  -1.7589  -0.2407  -0.1816   0.2504   0.7313

          k = 0.3125 0.4375 0.0000 (  7314 PWs)   bands (ev):

    -8.1228  -7.0050  -6.7809  -5.6741  -4.7894  -4.7413  -3.7005  -3.6477
    -3.4748  -2.3937  -2.0059  -1.5493  -0.8182  -0.3654   0.2224   0.9217

          k = 0.3125-0.5000 0.0000 (  7294 PWs)   bands (ev):

    -7.5976  -7.5976  -6.2600  -6.2600  -4.2784  -4.2784  -4.2266  -4.2266
    -2.9669  -2.9669  -1.5561  -1.5561  -0.8764  -0.8764   0.6528   0.6528

          k = 0.3750 0.3750 0.0000 (  7312 PWs)   bands (ev):

    -8.1930  -6.8507  -5.9660  -5.9660  -4.8102  -4.6339  -4.6339  -3.7668
    -2.6338  -2.6338  -2.4595  -2.0741  -0.4300   0.0967   0.0967   0.1563

          k = 0.3750 0.4375 0.0000 (  7301 PWs)   bands (ev):

    -7.7373  -6.6226  -6.3988  -5.5302  -5.2733  -4.4131  -4.3640  -4.1900
    -3.2732  -3.1003  -2.2058  -1.6919  -1.0066  -0.5049   0.4704   0.5207

          k = 0.3750-0.5000 0.0000 (  7308 PWs)   bands (ev):

    -7.2135  -7.2135  -5.8811  -5.8811  -4.9929  -4.9929  -3.8533  -3.8533
    -3.6757  -3.6757  -1.7500  -1.7500  -1.0170  -1.0170   0.7243   0.7243

          k = 0.4375 0.4375 0.0000 (  7306 PWs)   bands (ev):

    -7.2832  -6.1728  -6.1728  -5.9501  -5.0611  -4.8390  -4.8390  -3.9219
    -3.7430  -2.8361  -2.8361  -1.8173  -1.0833  -0.1007  -0.1007   0.6585

          k = 0.4375-0.5000 0.0000 (  7318 PWs)   bands (ev):

    -6.7613  -6.7613  -5.6672  -5.6672  -5.4110  -5.4110  -4.3263  -4.3263
    -3.4087  -3.4087  -2.3402  -2.3402  -0.6377  -0.6377   0.3391   0.3391

          k =-0.5000-0.5000 0.0000 (  7340 PWs)   bands (ev):

    -6.2419  -6.2419  -6.2419  -6.2419  -4.9077  -4.9077  -4.9077  -4.9077
    -2.9038  -2.9038  -2.9038  -2.9038  -0.1671  -0.1671  -0.1671  -0.1671

     the Fermi energy is    -0.1295 ev

!    total energy              =     -99.58094217 Ry
     Harris-Foulkes estimate   =     -99.58094218 Ry
     estimated scf accuracy    <          6.8E-09 Ry

     The total energy is the sum of the following terms:

     one-electron contribution =    -390.00400884 Ry
     hartree contribution      =     199.83210793 Ry
     xc contribution           =     -79.76924551 Ry
     ewald contribution        =     170.35999377 Ry
     smearing contrib. (-TS)   =       0.00021048 Ry

     convergence has been achieved in  10 iterations

     Forces acting on atoms (Ry/au):

     atom    1 type  1   force =     0.00000000    0.00000000    0.00038043
     atom    2 type  1   force =     0.00000000    0.00000000    0.00038043
     atom    3 type  1   force =     0.00000000    0.00000000   -0.00043982
     atom    4 type  1   force =     0.00000000    0.00000000   -0.00043982
     atom    5 type  1   force =     0.00000000    0.00000000    0.00043972
     atom    6 type  1   force =     0.00000000    0.00000000    0.00043971
     atom    7 type  1   force =     0.00000000    0.00000000   -0.00038032
     atom    8 type  1   force =     0.00000000    0.00000000   -0.00038032

     Total force =     0.001163     Total SCF correction =     0.000122
     SCF correction compared to forces is large: reduce conv_thr to get better values


     entering subroutine stress ...

          total   stress  (Ry/bohr**3)                   (kbar)     P=  -13.01
  -0.00012374   0.00000000   0.00000000        -18.20      0.00      0.00
   0.00000000  -0.00012374   0.00000000          0.00    -18.20      0.00
   0.00000000   0.00000000  -0.00001789          0.00      0.00     -2.63


     bfgs converged in  11 scf cycles and  10 bfgs steps
     (criteria: energy <  1.0E-04, force <  1.0E-03)

     End of BFGS Geometry Optimization

     Final energy   =     -99.5809421739 Ry
Begin final coordinates

ATOMIC_POSITIONS (crystal)
Al       0.000000000   0.000000000  -0.003067852
Al       0.500000000   0.500000000  -0.003067852
Al       0.500000000   0.000000000   0.082601780
Al       0.000000000   0.500000000   0.082601780
Al       0.000000000   0.000000000   0.167398243
Al       0.500000000   0.500000000   0.167398248
Al       0.500000000   0.000000000   0.253067827
Al       0.000000000   0.500000000   0.253067827
End final coordinates



     Writing output data file Al_100_2_4.save

     init_run     :     12.28s CPU     14.59s WALL (       1 calls)
     electrons    :   1845.11s CPU   2291.15s WALL (      11 calls)
     update_pot   :      3.49s CPU      3.64s WALL (      10 calls)
     forces       :     25.95s CPU     26.55s WALL (      11 calls)
     stress       :     54.26s CPU     55.45s WALL (      11 calls)

     Called by init_run:
     wfcinit      :     11.56s CPU     13.83s WALL (       1 calls)
     potinit      :      0.18s CPU      0.22s WALL (       1 calls)

     Called by electrons:
     c_bands      :   1454.96s CPU   1789.71s WALL (     118 calls)
     sum_band     :    245.32s CPU    326.13s WALL (     118 calls)
     v_of_rho     :     16.71s CPU     17.94s WALL (     127 calls)
     newd         :     13.24s CPU     13.46s WALL (     127 calls)
     mix_rho      :    115.82s CPU    144.61s WALL (     118 calls)

     Called by c_bands:
     init_us_2    :     22.51s CPU     26.34s WALL (   11655 calls)
     cegterg      :   1430.90s CPU   1762.33s WALL (    5310 calls)

     Called by *egterg:
     h_psi        :   1043.48s CPU   1350.32s WALL (   14892 calls)
     s_psi        :     88.47s CPU     95.24s WALL (   14892 calls)
     g_psi        :      3.80s CPU      4.47s WALL (    9537 calls)
     cdiaghg      :      8.11s CPU      9.15s WALL (   14307 calls)

     Called by h_psi:
     add_vuspsi   :     91.32s CPU     95.75s WALL (   14892 calls)

     General routines
     calbec       :    142.82s CPU    155.70s WALL (   21192 calls)
     fft          :     13.69s CPU     16.07s WALL (    2281 calls)
     ffts         :     67.32s CPU     87.10s WALL (   27182 calls)
     fftw         :    970.68s CPU   1304.71s WALL (  477030 calls)
     interpolate  :      2.15s CPU      2.77s WALL (     245 calls)
     davcio       :      0.01s CPU      0.05s WALL (      45 calls)

     Parallel routines
     fft_scatter  :     41.33s CPU     60.39s WALL (  506493 calls)

     PWSCF        : 32m23.53s CPU    39m53.99s WALL


   This run was terminated on:  20:33:11  27May2020            

=------------------------------------------------------------------------------=
   JOB DONE.
=------------------------------------------------------------------------------=
