
     Program PWSCF v.6.4.1 starts on 30May2020 at 17: 4:33 

     This program is part of the open-source Quantum ESPRESSO suite
     for quantum simulation of materials; please cite
         "P. Giannozzi et al., J. Phys.:Condens. Matter 21 395502 (2009);
         "P. Giannozzi et al., J. Phys.:Condens. Matter 29 465901 (2017);
          URL http://www.quantum-espresso.org", 
     in publications or presentations arising from this work. More details at
     http://www.quantum-espresso.org/quote

     Parallel version (MPI & OpenMP), running on       1 processor cores
     Number of MPI processes:                 1
     Threads/MPI process:                     1

     MPI processes distributed on     1 nodes
     Reading input from Al_100_surf_15.pw.in

     Current dimensions of program PWSCF are:
     Max number of different atomic species (ntypx) = 10
     Max number of k-points (npk) =  40000
     Max angular momentum in pseudopotentials (lmaxx) =  3

     Subspace diagonalization in iterative solution of the eigenvalue problem:
     a serial algorithm will be used

     Found symmetry operation: I + ( -0.5000 -0.5000  0.0000)
     This is a supercell, fractional translations are disabled
 
     G-vector sticks info
     --------------------
     sticks:   dense  smooth     PW     G-vecs:    dense   smooth      PW
     Sum         681     681    421               122579   122579   58019
 


     bravais-lattice index     =            6
     lattice parameter (alat)  =       7.6050  a.u.
     unit-cell volume          =    3958.5867 (a.u.)^3
     number of atoms/cell      =           20
     number of atomic types    =            1
     number of electrons       =        60.00
     number of Kohn-Sham states=           36
     kinetic-energy cutoff     =      80.0000  Ry
     charge density cutoff     =     150.0000  Ry
     convergence threshold     =      1.0E-06
     mixing beta               =       0.3000
     number of iterations used =            8  local-TF  mixing
     Exchange-correlation      =  SLA  PW   PBE  PBE ( 1  4  3  4 0 0)
     nstep                     =           50


     celldm(1)=   7.605000  celldm(2)=   0.000000  celldm(3)=   9.000000
     celldm(4)=   0.000000  celldm(5)=   0.000000  celldm(6)=   0.000000

     crystal axes: (cart. coord. in units of alat)
               a(1) = (   1.000000   0.000000   0.000000 )  
               a(2) = (   0.000000   1.000000   0.000000 )  
               a(3) = (   0.000000   0.000000   9.000000 )  

     reciprocal axes: (cart. coord. in units 2 pi/alat)
               b(1) = (  1.000000  0.000000  0.000000 )  
               b(2) = (  0.000000  1.000000  0.000000 )  
               b(3) = (  0.000000  0.000000  0.111111 )  


     PseudoPot. # 1 for Al read from file:
     ./Al.pbe-n-van.UPF
     MD5 check sum: b11ded24487aef5bc42d5c7a2e22a7b6
     Pseudo is Ultrasoft + core correction, Zval =  3.0
     Generated by new atomic code, or converted to UPF format
     Using radial grid of  893 points,  2 beta functions with: 
                l(1) =   0
                l(2) =   1
     Q(r) pseudized with  8 coefficients,  rinner =    0.900   0.900   0.900


     atomic species   valence    mass     pseudopotential
        Al             3.00    26.98000     Al( 1.00)

      8 Sym. Ops. (no inversion) found



   Cartesian axes

     site n.     atom                  positions (alat units)
         1           Al  tau(   1) = (   0.0000000   0.0000000   0.0000000  )
         2           Al  tau(   2) = (   0.5000000   0.5000000   0.0000000  )
         3           Al  tau(   3) = (   0.5000000   0.0000000   0.5000000  )
         4           Al  tau(   4) = (   0.0000000   0.5000000   0.5000000  )
         5           Al  tau(   5) = (   0.0000000   0.0000000   1.0000000  )
         6           Al  tau(   6) = (   0.5000000   0.5000000   1.0000000  )
         7           Al  tau(   7) = (   0.5000000   0.0000000   1.5000000  )
         8           Al  tau(   8) = (   0.0000000   0.5000000   1.5000000  )
         9           Al  tau(   9) = (   0.0000000   0.0000000   2.0000000  )
        10           Al  tau(  10) = (   0.5000000   0.5000000   2.0000000  )
        11           Al  tau(  11) = (   0.5000000   0.0000000   2.5000000  )
        12           Al  tau(  12) = (   0.0000000   0.5000000   2.5000000  )
        13           Al  tau(  13) = (   0.0000000   0.0000000   3.0000000  )
        14           Al  tau(  14) = (   0.5000000   0.5000000   3.0000000  )
        15           Al  tau(  15) = (   0.5000000   0.0000000   3.5000000  )
        16           Al  tau(  16) = (   0.0000000   0.5000000   3.5000000  )
        17           Al  tau(  17) = (   0.0000000   0.0000000   4.0000000  )
        18           Al  tau(  18) = (   0.5000000   0.5000000   4.0000000  )
        19           Al  tau(  19) = (   0.5000000   0.0000000   4.5000000  )
        20           Al  tau(  20) = (   0.0000000   0.5000000   4.5000000  )

     number of k points=    45  Marzari-Vanderbilt smearing, width (Ry)=  0.0250
                       cart. coord. in units 2pi/alat
        k(    1) = (   0.0000000   0.0000000   0.0000000), wk =   0.0078125
        k(    2) = (   0.0000000   0.0625000   0.0000000), wk =   0.0312500
        k(    3) = (   0.0000000   0.1250000   0.0000000), wk =   0.0312500
        k(    4) = (   0.0000000   0.1875000   0.0000000), wk =   0.0312500
        k(    5) = (   0.0000000   0.2500000   0.0000000), wk =   0.0312500
        k(    6) = (   0.0000000   0.3125000   0.0000000), wk =   0.0312500
        k(    7) = (   0.0000000   0.3750000   0.0000000), wk =   0.0312500
        k(    8) = (   0.0000000   0.4375000   0.0000000), wk =   0.0312500
        k(    9) = (   0.0000000  -0.5000000   0.0000000), wk =   0.0156250
        k(   10) = (   0.0625000   0.0625000   0.0000000), wk =   0.0312500
        k(   11) = (   0.0625000   0.1250000   0.0000000), wk =   0.0625000
        k(   12) = (   0.0625000   0.1875000   0.0000000), wk =   0.0625000
        k(   13) = (   0.0625000   0.2500000   0.0000000), wk =   0.0625000
        k(   14) = (   0.0625000   0.3125000   0.0000000), wk =   0.0625000
        k(   15) = (   0.0625000   0.3750000   0.0000000), wk =   0.0625000
        k(   16) = (   0.0625000   0.4375000   0.0000000), wk =   0.0625000
        k(   17) = (   0.0625000  -0.5000000   0.0000000), wk =   0.0312500
        k(   18) = (   0.1250000   0.1250000   0.0000000), wk =   0.0312500
        k(   19) = (   0.1250000   0.1875000   0.0000000), wk =   0.0625000
        k(   20) = (   0.1250000   0.2500000   0.0000000), wk =   0.0625000
        k(   21) = (   0.1250000   0.3125000   0.0000000), wk =   0.0625000
        k(   22) = (   0.1250000   0.3750000   0.0000000), wk =   0.0625000
        k(   23) = (   0.1250000   0.4375000   0.0000000), wk =   0.0625000
        k(   24) = (   0.1250000  -0.5000000   0.0000000), wk =   0.0312500
        k(   25) = (   0.1875000   0.1875000   0.0000000), wk =   0.0312500
        k(   26) = (   0.1875000   0.2500000   0.0000000), wk =   0.0625000
        k(   27) = (   0.1875000   0.3125000   0.0000000), wk =   0.0625000
        k(   28) = (   0.1875000   0.3750000   0.0000000), wk =   0.0625000
        k(   29) = (   0.1875000   0.4375000   0.0000000), wk =   0.0625000
        k(   30) = (   0.1875000  -0.5000000   0.0000000), wk =   0.0312500
        k(   31) = (   0.2500000   0.2500000   0.0000000), wk =   0.0312500
        k(   32) = (   0.2500000   0.3125000   0.0000000), wk =   0.0625000
        k(   33) = (   0.2500000   0.3750000   0.0000000), wk =   0.0625000
        k(   34) = (   0.2500000   0.4375000   0.0000000), wk =   0.0625000
        k(   35) = (   0.2500000  -0.5000000   0.0000000), wk =   0.0312500
        k(   36) = (   0.3125000   0.3125000   0.0000000), wk =   0.0312500
        k(   37) = (   0.3125000   0.3750000   0.0000000), wk =   0.0625000
        k(   38) = (   0.3125000   0.4375000   0.0000000), wk =   0.0625000
        k(   39) = (   0.3125000  -0.5000000   0.0000000), wk =   0.0312500
        k(   40) = (   0.3750000   0.3750000   0.0000000), wk =   0.0312500
        k(   41) = (   0.3750000   0.4375000   0.0000000), wk =   0.0625000
        k(   42) = (   0.3750000  -0.5000000   0.0000000), wk =   0.0312500
        k(   43) = (   0.4375000   0.4375000   0.0000000), wk =   0.0312500
        k(   44) = (   0.4375000  -0.5000000   0.0000000), wk =   0.0312500
        k(   45) = (  -0.5000000  -0.5000000   0.0000000), wk =   0.0078125

     Dense  grid:   122579 G-vectors     FFT dimensions: (  30,  30, 270)

     Estimated max dynamical RAM per process >       1.61 GB

     Initial potential from superposition of free atoms

     starting charge   59.95069, renormalised to   60.00000

     negative rho (up, down):  4.883E-05 0.000E+00
     Starting wfcs are   80 randomized atomic wfcs

     total cpu time spent up to now is       53.2 secs

     Self-consistent Calculation

     iteration #  1     ecut=    80.00 Ry     beta= 0.30
     Davidson diagonalization with overlap
     ethr =  1.00E-02,  avg # of iterations =  2.8

     total cpu time spent up to now is      140.0 secs

     total energy              =    -249.26932353 Ry
     Harris-Foulkes estimate   =    -249.32060119 Ry
     estimated scf accuracy    <       1.79214954 Ry

     iteration #  2     ecut=    80.00 Ry     beta= 0.30
     Davidson diagonalization with overlap
     ethr =  2.99E-03,  avg # of iterations =  1.0

     total cpu time spent up to now is      193.4 secs

     total energy              =    -249.10508402 Ry
     Harris-Foulkes estimate   =    -249.28407281 Ry
     estimated scf accuracy    <       1.31748008 Ry

     iteration #  3     ecut=    80.00 Ry     beta= 0.30
     Davidson diagonalization with overlap
     ethr =  2.20E-03,  avg # of iterations =  2.0

     total cpu time spent up to now is      253.3 secs

     total energy              =    -249.18130673 Ry
     Harris-Foulkes estimate   =    -249.21398971 Ry
     estimated scf accuracy    <       0.25968290 Ry

     iteration #  4     ecut=    80.00 Ry     beta= 0.30
     Davidson diagonalization with overlap
     ethr =  4.33E-04,  avg # of iterations =  2.4

     total cpu time spent up to now is      314.1 secs

     total energy              =    -249.19630594 Ry
     Harris-Foulkes estimate   =    -249.19722097 Ry
     estimated scf accuracy    <       0.02112994 Ry

     iteration #  5     ecut=    80.00 Ry     beta= 0.30
     Davidson diagonalization with overlap
     ethr =  3.52E-05,  avg # of iterations =  4.4

     total cpu time spent up to now is      387.2 secs

     total energy              =    -249.19236813 Ry
     Harris-Foulkes estimate   =    -249.19775093 Ry
     estimated scf accuracy    <       0.02655781 Ry

     iteration #  6     ecut=    80.00 Ry     beta= 0.30
     Davidson diagonalization with overlap
     ethr =  3.52E-05,  avg # of iterations =  1.3

     total cpu time spent up to now is      441.3 secs

     total energy              =    -249.19323747 Ry
     Harris-Foulkes estimate   =    -249.19333823 Ry
     estimated scf accuracy    <       0.03337707 Ry

     iteration #  7     ecut=    80.00 Ry     beta= 0.30
     Davidson diagonalization with overlap
     ethr =  3.52E-05,  avg # of iterations =  2.4

     negative rho (up, down):  1.306E-03 0.000E+00

     total cpu time spent up to now is      501.4 secs

     total energy              =    -249.18653344 Ry
     Harris-Foulkes estimate   =    -249.19423207 Ry
     estimated scf accuracy    <       0.09366483 Ry

     iteration #  8     ecut=    80.00 Ry     beta= 0.30
     Davidson diagonalization with overlap
     ethr =  3.52E-05,  avg # of iterations =  3.2

     negative rho (up, down):  9.503E-03 0.000E+00

     total cpu time spent up to now is      570.5 secs

     total energy              =    -249.19055634 Ry
     Harris-Foulkes estimate   =    -249.19086442 Ry
     estimated scf accuracy    <       0.00862091 Ry

     iteration #  9     ecut=    80.00 Ry     beta= 0.30
     Davidson diagonalization with overlap
     ethr =  1.44E-05,  avg # of iterations =  1.3

     negative rho (up, down):  1.499E-02 0.000E+00

     total cpu time spent up to now is      625.0 secs

     total energy              =    -249.19007731 Ry
     Harris-Foulkes estimate   =    -249.19069260 Ry
     estimated scf accuracy    <       0.01163501 Ry

     iteration # 10     ecut=    80.00 Ry     beta= 0.30
     Davidson diagonalization with overlap
     ethr =  1.44E-05,  avg # of iterations =  2.9

     negative rho (up, down):  1.770E-02 0.000E+00

     total cpu time spent up to now is      694.8 secs

     total energy              =    -249.18978047 Ry
     Harris-Foulkes estimate   =    -249.19146525 Ry
     estimated scf accuracy    <       0.03133309 Ry

     iteration # 11     ecut=    80.00 Ry     beta= 0.30
     Davidson diagonalization with overlap
     ethr =  1.44E-05,  avg # of iterations =  1.7

     negative rho (up, down):  8.923E-03 0.000E+00

     total cpu time spent up to now is      751.6 secs

     total energy              =    -249.18861546 Ry
     Harris-Foulkes estimate   =    -249.19014521 Ry
     estimated scf accuracy    <       0.00984344 Ry

     iteration # 12     ecut=    80.00 Ry     beta= 0.30
     Davidson diagonalization with overlap
     ethr =  1.44E-05,  avg # of iterations =  3.0

     negative rho (up, down):  8.149E-03 0.000E+00

     total cpu time spent up to now is      820.1 secs

     total energy              =    -249.19010400 Ry
     Harris-Foulkes estimate   =    -249.18990844 Ry
     estimated scf accuracy    <       0.00618319 Ry

     iteration # 13     ecut=    80.00 Ry     beta= 0.30
     Davidson diagonalization with overlap
     ethr =  1.03E-05,  avg # of iterations =  1.0

     negative rho (up, down):  1.785E-03 0.000E+00

     total cpu time spent up to now is      873.6 secs

     total energy              =    -249.18865454 Ry
     Harris-Foulkes estimate   =    -249.19018286 Ry
     estimated scf accuracy    <       0.01201166 Ry

     iteration # 14     ecut=    80.00 Ry     beta= 0.30
     Davidson diagonalization with overlap
     ethr =  1.03E-05,  avg # of iterations =  2.6

     negative rho (up, down):  2.014E-03 0.000E+00

     total cpu time spent up to now is      940.5 secs

     total energy              =    -249.18961750 Ry
     Harris-Foulkes estimate   =    -249.18985646 Ry
     estimated scf accuracy    <       0.00319371 Ry

     iteration # 15     ecut=    80.00 Ry     beta= 0.30
     Davidson diagonalization with overlap
     ethr =  5.32E-06,  avg # of iterations =  1.2

     negative rho (up, down):  2.229E-03 0.000E+00

     total cpu time spent up to now is      994.4 secs

     total energy              =    -249.18975653 Ry
     Harris-Foulkes estimate   =    -249.18968232 Ry
     estimated scf accuracy    <       0.00081180 Ry

     iteration # 16     ecut=    80.00 Ry     beta= 0.30
     Davidson diagonalization with overlap
     ethr =  1.35E-06,  avg # of iterations =  1.2

     negative rho (up, down):  1.019E-03 0.000E+00

     total cpu time spent up to now is     1049.5 secs

     total energy              =    -249.18940355 Ry
     Harris-Foulkes estimate   =    -249.18976942 Ry
     estimated scf accuracy    <       0.00143185 Ry

     iteration # 17     ecut=    80.00 Ry     beta= 0.30
     Davidson diagonalization with overlap
     ethr =  1.35E-06,  avg # of iterations =  3.2

     negative rho (up, down):  2.095E-04 0.000E+00

     total cpu time spent up to now is     1124.0 secs

     total energy              =    -249.18961213 Ry
     Harris-Foulkes estimate   =    -249.18970311 Ry
     estimated scf accuracy    <       0.00132668 Ry

     iteration # 18     ecut=    80.00 Ry     beta= 0.30
     Davidson diagonalization with overlap
     ethr =  1.35E-06,  avg # of iterations =  2.2

     negative rho (up, down):  1.545E-04 0.000E+00

     total cpu time spent up to now is     1183.5 secs

     total energy              =    -249.18964380 Ry
     Harris-Foulkes estimate   =    -249.18964419 Ry
     estimated scf accuracy    <       0.00017494 Ry

     iteration # 19     ecut=    80.00 Ry     beta= 0.30
     Davidson diagonalization with overlap
     ethr =  2.92E-07,  avg # of iterations =  1.0

     negative rho (up, down):  1.570E-04 0.000E+00

     total cpu time spent up to now is     1238.6 secs

     total energy              =    -249.18963072 Ry
     Harris-Foulkes estimate   =    -249.18964572 Ry
     estimated scf accuracy    <       0.00017183 Ry

     iteration # 20     ecut=    80.00 Ry     beta= 0.30
     Davidson diagonalization with overlap
     ethr =  2.86E-07,  avg # of iterations =  2.0

     negative rho (up, down):  1.617E-04 0.000E+00

     total cpu time spent up to now is     1300.1 secs

     total energy              =    -249.18963792 Ry
     Harris-Foulkes estimate   =    -249.18963850 Ry
     estimated scf accuracy    <       0.00000616 Ry

     iteration # 21     ecut=    80.00 Ry     beta= 0.30
     Davidson diagonalization with overlap
     ethr =  1.03E-08,  avg # of iterations =  3.2

     negative rho (up, down):  6.334E-06 0.000E+00

     total cpu time spent up to now is     1370.4 secs

     End of self-consistent calculation

          k = 0.0000 0.0000 0.0000 ( 47879 PWs)   bands (ev):

    -8.5665  -8.3036  -7.8811  -7.2948  -6.5451  -5.6466  -4.6081  -3.4327
    -2.1309  -0.6345  -0.2867  -0.2867  -0.0448  -0.0448   0.1651   0.3437
     0.3437   0.8846   0.8846   1.0764   1.0764   1.3271   1.3271   1.5801
     1.5801   1.7253   1.7253   2.2586   2.2586   2.2883   2.4191   2.4191
     3.0598   3.0598   3.3961   3.3961

          k = 0.0000 0.0625 0.0000 ( 47817 PWs)   bands (ev):

    -8.5307  -8.2679  -7.8455  -7.2593  -6.5098  -5.6114  -4.5731  -3.3981
    -2.0965  -0.8584  -0.6118  -0.6003  -0.2539  -0.2162  -0.0120   0.1982
     0.3323   0.3765   0.9174   1.0304   1.1110   1.3655   1.6129   1.7092
     1.7128   1.9179   1.9766   2.2518   2.3214   2.4047   2.4519   2.7906
     2.9223   3.2269   3.4289   3.5479

          k = 0.0000 0.1250 0.0000 ( 47819 PWs)   bands (ev):

    -8.4234  -8.1608  -7.7386  -7.1528  -6.4039  -5.5061  -4.4685  -3.2942
    -1.9936  -1.7622  -1.5121  -1.1108  -0.5542  -0.4979  -0.1555   0.0864
     0.1564   0.2975   0.4750   0.9977   1.0158   1.2161   1.4531   1.7114
     1.8839   1.9754   2.4205   2.5306   2.5503   2.7966   3.0186   3.1608
     3.2053   3.4009   3.5272   4.0272

          k = 0.0000 0.1875 0.0000 ( 47794 PWs)   bands (ev):

    -8.2448  -7.9824  -7.5608  -6.9756  -6.2275  -5.3307  -4.2942  -3.1212
    -2.6608  -2.4083  -2.0030  -1.8222  -1.4409  -0.7224  -0.3275   0.0086
     0.1361   0.2505   0.4630   0.6391   1.1096   1.1799   1.3797   1.6578
     1.8755   1.9576   2.4190   2.5844   2.6718   2.7143   3.3638   3.5520
     3.6911   3.9922   4.1119   4.1759

          k = 0.0000 0.2500 0.0000 ( 47832 PWs)   bands (ev):

    -7.9951  -7.7331  -7.3121  -6.7279  -5.9809  -5.0855  -4.0506  -3.5115
    -3.2572  -2.8795  -2.8489  -2.2825  -1.5826  -1.5582  -0.6912  -0.0896
     0.2383   0.3065   0.4803   0.6946   0.8688   1.3937   1.4097   1.6433
     1.8532   2.1052   2.3750   2.7807   2.8103   2.9084   2.9439   3.5973
     3.9205   4.2075   4.3208   4.4159

          k = 0.0000 0.3125 0.0000 ( 47800 PWs)   bands (ev):

    -7.6747  -7.4132  -6.9931  -6.4100  -5.6645  -4.7709  -4.3037  -4.0479
    -3.7381  -3.6371  -3.0671  -2.5694  -2.3383  -1.4651  -1.2754  -0.4578
     0.2150   0.5338   0.6743   0.7757   0.9919   1.1643   1.7051   1.8302
     1.9132   2.3567   2.4006   2.6563   3.0906   3.2063   3.2392   3.4486
     3.6877   3.9295   3.9504   4.1151

          k = 0.0000 0.3750 0.0000 ( 47828 PWs)   bands (ev):

    -7.2840  -7.0231  -6.6040  -6.0224  -5.2787  -5.0331  -4.7760  -4.3873
    -4.3630  -3.7900  -3.3571  -3.0573  -2.1914  -2.1792  -1.1653  -0.9012
    -0.0209   0.5851   0.8949   1.1369   1.2302   1.3549   1.5255   2.0663
     2.2016   2.6300   2.7616   2.8594   2.9975   3.0216   3.2394   3.3957
     3.4194   3.6000   3.6133   3.6277

          k = 0.0000 0.4375 0.0000 ( 47840 PWs)   bands (ev):

    -6.8237  -6.5636  -6.1457  -5.6972  -5.5658  -5.4389  -5.0241  -4.8243
    -4.4485  -3.9355  -3.7124  -2.9083  -2.8302  -1.8110  -1.7463  -0.6591
    -0.4609   0.6106   1.0183   1.3219   1.5638   1.7828   1.9524   2.0227
     2.3732   2.4931   2.6151   2.8238   2.8362   3.0035   3.0540   3.1883
     3.4529   3.5440   3.5443   4.0530

          k = 0.0000-0.5000 0.0000 ( 47822 PWs)   bands (ev):

    -6.2944  -6.2944  -6.0352  -6.0352  -5.6187  -5.6187  -5.0408  -5.0408
    -4.3018  -4.3018  -3.4161  -3.4161  -2.3926  -2.3926  -1.2351  -1.2351
     0.0440   0.0440   1.5082   1.5082   1.8146   1.8146   2.0565   2.0565
     2.2746   2.2746   2.4451   2.4451   2.9857   2.9857   3.2353   3.2353
     3.5317   3.5317   3.6806   3.6807

          k = 0.0625 0.0625 0.0000 ( 47799 PWs)   bands (ev):

    -8.4950  -8.2322  -7.8098  -7.2238  -6.4745  -5.5763  -4.5383  -3.3634
    -2.0622  -0.8250  -0.8250  -0.5786  -0.5786  -0.5662  -0.1833  -0.1833
     0.2313   0.3648   0.3648   1.0709   1.0709   1.7409   1.7409   1.9141
     1.9141   1.9870   1.9870   2.3544   2.3965   2.3965   2.8058   2.8058
     3.0559   3.0559   3.7005   3.7005

          k = 0.0625 0.1250 0.0000 ( 47788 PWs)   bands (ev):

    -8.3877  -8.1251  -7.7030  -7.1174  -6.3686  -5.4710  -4.4336  -3.2596
    -1.9593  -1.7283  -1.4783  -1.0774  -0.7249  -0.5218  -0.4786  -0.4639
    -0.0828   0.1810   0.3306   0.4794   1.0149   1.2125   1.8427   1.9704
     2.0251   2.1574   2.4528   2.4744   2.8270   2.9579   3.0861   3.1079
     3.2345   3.4573   3.7170   3.9841

          k = 0.0625 0.1875 0.0000 ( 47821 PWs)   bands (ev):

    -8.2091  -7.9468  -7.5252  -6.9402  -6.1922  -5.2957  -4.2594  -3.0867
    -2.6266  -2.3741  -1.9691  -1.7879  -1.4073  -0.6906  -0.5578  -0.3109
    -0.2936   0.0570   0.1999   0.4961   0.6294   1.1796   1.3499   1.9958
     2.1907   2.2588   2.2611   2.6145   2.7695   3.1719   3.2589   3.5956
     3.9394   4.0224   4.1283   4.2699

          k = 0.0625 0.2500 0.0000 ( 47839 PWs)   bands (ev):

    -7.9595  -7.6975  -7.2766  -6.6925  -5.9457  -5.0505  -4.0159  -3.4770
    -3.2228  -2.8450  -2.8146  -2.2484  -1.5485  -1.5247  -0.6597  -0.3240
    -0.0828  -0.0560   0.3190   0.3412   0.7275   0.8865   1.4745   1.5828
     2.2440   2.3874   2.4414   2.8315   2.8822   2.9549   3.3998   3.4956
     3.9575   4.0783   4.1214   4.3218

          k = 0.0625 0.3125 0.0000 ( 47799 PWs)   bands (ev):

    -7.6391  -7.3777  -6.9576  -6.3747  -5.6294  -4.7360  -4.2690  -4.0133
    -3.7034  -3.6026  -3.0328  -2.5350  -2.3042  -1.4316  -1.2414  -0.4272
    -0.0257   0.2247   0.2481   0.5706   0.7735   1.0247   1.1772   1.8780
     1.9556   2.5136   2.7248   2.8761   2.9881   3.2479   3.3372   3.3947
     3.4819   3.7444   3.7891   3.7972

          k = 0.0625 0.3750 0.0000 ( 47793 PWs)   bands (ev):

    -7.2485  -6.9877  -6.5687  -5.9872  -5.2437  -4.9982  -4.7411  -4.3525
    -4.3283  -3.7554  -3.3225  -3.0229  -2.1571  -2.1452  -1.1320  -0.8675
     0.0066   0.3442   0.5803   0.6168   0.9981   1.2937   1.3873   1.5413
     2.2381   2.4570   2.6185   2.7132   3.0782   3.0916   3.1073   3.2125
     3.4966   3.5179   3.6115   3.6544

          k = 0.0625 0.4375 0.0000 ( 47840 PWs)   bands (ev):

    -6.7883  -6.5283  -6.1105  -5.6621  -5.5307  -5.4039  -4.9892  -4.7894
    -4.4137  -3.9008  -3.6778  -2.8739  -2.7959  -1.7771  -1.7122  -0.6264
    -0.4277   0.6265   0.7694   1.0427   1.0514   1.4254   1.8140   1.8519
     1.9706   2.0905   2.1100   2.4826   2.6782   2.8585   3.0300   3.3804
     3.5266   3.6373   3.7164   3.8416

          k = 0.0625-0.5000 0.0000 ( 47854 PWs)   bands (ev):

    -6.2592  -6.2592  -6.0000  -6.0000  -5.5836  -5.5836  -5.0059  -5.0059
    -4.2670  -4.2670  -3.3815  -3.3815  -2.3583  -2.3583  -1.2014  -1.2014
     0.0754   0.0754   1.2345   1.2345   1.5304   1.5304   1.5968   1.5968
     1.9214   1.9214   2.3007   2.3007   2.4748   2.4748   3.1699   3.1699
     3.7682   3.7682   4.0150   4.0154

          k = 0.1250 0.1250 0.0000 ( 47769 PWs)   bands (ev):

    -8.2805  -8.0181  -7.5963  -7.0111  -6.2627  -5.3658  -4.3291  -3.1558
    -1.8565  -1.6268  -1.6268  -1.3772  -1.3772  -0.9770  -0.9770  -0.4227
    -0.4227  -0.3618   0.2977   0.2977   0.4298   1.1651   1.1651   2.1403
     2.1403   2.5481   2.9174   2.9174   3.1583   3.1583   3.2344   3.2344
     3.6543   3.6543   4.1305   4.1308

          k = 0.1250 0.1875 0.0000 ( 47760 PWs)   bands (ev):

    -8.1021  -7.8399  -7.4186  -6.8340  -6.0865  -5.1906  -4.1550  -2.9831
    -2.5239  -2.2718  -1.8674  -1.6853  -1.4579  -1.3072  -1.2084  -0.8077
    -0.5997  -0.2341  -0.1920   0.2488   0.5093   0.5951   1.2734   1.3393
     2.2831   2.4274   2.6979   3.0927   3.2616   3.4224   3.7795   3.7811
     3.9268   3.9820   4.1273   4.3096

          k = 0.1250 0.2500 0.0000 ( 47813 PWs)   bands (ev):

    -7.8526  -7.5909  -7.1702  -6.5865  -5.8402  -4.9456  -3.9117  -3.3736
    -3.1195  -2.7416  -2.7118  -2.1464  -1.4462  -1.4252  -1.2210  -0.9711
    -0.6317  -0.4928  -0.0227   0.0447   0.4747   0.7129   0.8263   1.5618
     1.5881   2.5513   2.7999   2.8104   3.2457   3.2810   3.3000   3.6350
     3.6826   3.6925   4.0089   4.2338

          k = 0.1250 0.3125 0.0000 ( 47843 PWs)   bands (ev):

    -7.5325  -7.2712  -6.8515  -6.2689  -5.5241  -4.6313  -4.1649  -3.9093
    -3.5994  -3.4990  -2.9297  -2.4319  -2.2021  -1.3325  -1.1397  -0.9169
    -0.6765  -0.3199  -0.2663   0.3121   0.3464   0.8327   1.0143   1.1229
     1.8482   2.1002   2.2748   2.5415   2.8368   2.9392   3.3153   3.4031
     3.4905   3.8165   3.9122   3.9281

          k = 0.1250 0.3750 0.0000 ( 47819 PWs)   bands (ev):

    -7.1422  -6.8816  -6.4628  -5.8817  -5.1387  -4.8935  -4.6366  -4.2481
    -4.2241  -3.6517  -3.2189  -2.9198  -2.0545  -2.0432  -1.0340  -0.7667
    -0.5490  -0.2945   0.0136   0.2233   0.6714   0.7059   1.3776   1.3947
     1.4838   1.6138   1.8538   2.2320   2.2490   2.8007   2.8154   3.2537
     3.4876   3.5730   3.6673   4.0205

          k = 0.1250 0.4375 0.0000 ( 47791 PWs)   bands (ev):

    -6.6823  -6.4224  -6.0049  -5.5569  -5.4255  -5.2989  -4.8845  -4.6847
    -4.3094  -3.7967  -3.5741  -2.7707  -2.6929  -1.6756  -1.6103  -0.5320
    -0.3295  -0.1079   0.1258   0.5580   0.7779   0.8937   1.1052   1.2262
     1.2354   1.6198   1.8033   1.9060   2.1774   2.2401   2.6419   2.8774
     2.9891   3.6585   3.7287   4.0406

          k = 0.1250-0.5000 0.0000 ( 47842 PWs)   bands (ev):

    -6.1535  -6.1535  -5.8945  -5.8945  -5.4785  -5.4785  -4.9011  -4.9011
    -4.1628  -4.1628  -3.2780  -3.2780  -2.2557  -2.2557  -1.1009  -1.1009
     0.1571   0.1571   0.3849   0.3849   0.6791   0.6791   1.0546   1.0546
     1.6033   1.6033   1.6735   1.6735   2.3192   2.3192   2.4005   2.4005
     3.1747   3.1747   4.1327   4.1327

          k = 0.1875 0.1875 0.0000 ( 47793 PWs)   bands (ev):

    -7.9238  -7.6620  -7.2412  -6.6572  -5.9105  -5.0155  -3.9811  -2.8106
    -2.3531  -2.3531  -2.1016  -2.1016  -1.6982  -1.6982  -1.5145  -1.1397
    -1.1397  -0.4115  -0.4115  -0.0233   0.4631   0.4631   0.7601   1.4498
     1.4498   2.5736   2.5736   2.7348   3.2016   3.2317   3.6455   3.7974
     3.7974   4.1867   4.2730   4.2730

          k = 0.1875 0.2500 0.0000 ( 47795 PWs)   bands (ev):

    -7.6747  -7.4132  -6.9931  -6.4100  -5.6645  -4.7709  -3.7381  -3.2014
    -2.9477  -2.5695  -2.5410  -2.1147  -1.9772  -1.8633  -1.4595  -1.2761
    -1.2654  -0.8806  -0.4076  -0.1356   0.2108   0.6198   0.7043   0.9906
     1.6465   1.8012   2.1638   2.4342   2.7691   2.8331   3.0571   3.1965
     3.3860   3.9942   4.0954   4.3663

          k = 0.1875 0.3125 0.0000 ( 47802 PWs)   bands (ev):

    -7.3549  -7.0940  -6.6747  -6.0928  -5.3488  -4.4570  -3.9916  -3.7363
    -3.4264  -3.3266  -2.7584  -2.2603  -2.0337  -1.8078  -1.5561  -1.2264
    -1.0836  -0.9707  -0.6008  -0.1235   0.1387   0.5031   0.9931   0.9984
     1.2854   1.4418   1.6827   1.9892   2.0793   2.2529   2.6328   3.1214
     3.3178   3.4921   3.6736   4.1829

          k = 0.1875 0.3750 0.0000 ( 47823 PWs)   bands (ev):

    -6.9651  -6.7048  -6.2865  -5.7061  -4.9639  -4.7192  -4.4626  -4.0743
    -4.0506  -3.4790  -3.0464  -2.7484  -1.8838  -1.8751  -1.4336  -1.1928
    -0.8559  -0.7786  -0.6004  -0.1979   0.3001   0.5098   0.6428   0.9796
     0.9886   1.3435   1.3836   1.5847   1.6416   1.9435   2.3394   2.6456
     3.0484   3.4275   3.4998   3.8273

          k = 0.1875 0.4375 0.0000 ( 47828 PWs)   bands (ev):

    -6.5058  -6.2462  -5.8291  -5.3817  -5.2504  -5.1240  -4.7101  -4.5105
    -4.1357  -3.6236  -3.4014  -2.5989  -2.5218  -1.5089  -1.4412  -0.9961
    -0.7399  -0.4428  -0.2330  -0.1792   0.0759   0.2314   0.3728   0.7503
     0.9317   0.9413   1.3010   1.3437   1.8001   2.0209   2.0709   2.3739
     2.8332   2.8800   3.1168   3.8417

          k = 0.1875-0.5000 0.0000 ( 47810 PWs)   bands (ev):

    -5.9777  -5.9777  -5.7189  -5.7189  -5.3034  -5.3034  -4.7267  -4.7267
    -3.9893  -3.9893  -3.1056  -3.1056  -2.0853  -2.0853  -0.9379  -0.9379
    -0.4853  -0.4853  -0.2514  -0.2514   0.1846   0.1846   0.3786   0.3786
     0.7348   0.7348   1.4337   1.4337   1.8524   1.8524   2.2723   2.2723
     2.6020   2.6020   3.3005   3.3005

          k = 0.2500 0.2500 0.0000 ( 47859 PWs)   bands (ev):

    -7.4259  -7.1649  -6.7454  -6.1632  -5.4189  -4.5267  -3.4956  -2.9607
    -2.9607  -2.7079  -2.7079  -2.3290  -2.3021  -2.3021  -1.7404  -1.7404
    -1.0387  -1.0075  -1.0075  -0.1307  -0.1306   0.4354   0.8626   0.8626
     1.2192   1.3820   1.6232   1.9954   1.9954   2.0202   2.5742   3.2497
     3.2497   3.2586   3.4307   4.1253

          k = 0.2500 0.3125 0.0000 ( 47856 PWs)   bands (ev):

    -7.1067  -6.8462  -6.4275  -5.8466  -5.1037  -4.2134  -3.7493  -3.4946
    -3.1845  -3.0859  -2.6523  -2.5196  -2.3997  -2.0208  -1.9937  -1.8041
    -1.4122  -0.9389  -0.7361  -0.6689   0.0860   0.1810   0.5146   0.8490
     0.8647   1.1212   1.2605   1.2812   1.5092   1.8214   2.2515   2.5244
     2.5474   3.3798   3.4923   3.6932

          k = 0.2500 0.3750 0.0000 ( 47843 PWs)   bands (ev):

    -6.7175  -6.4576  -6.0400  -5.4605  -4.7195  -4.4755  -4.2194  -3.8314
    -3.8082  -3.2379  -2.8054  -2.5104  -2.2754  -2.0226  -1.6951  -1.6459
    -1.5527  -1.0616  -0.5960  -0.3814  -0.3219  -0.1156   0.1816   0.5320
     0.5366   0.5605   1.1124   1.1432   1.5371   1.7937   1.8342   1.8727
     2.6743   2.6952   3.2362   3.6575

          k = 0.2500 0.4375 0.0000 ( 47865 PWs)   bands (ev):

    -6.2590  -5.9998  -5.5834  -5.1369  -5.0057  -4.8796  -4.4664  -4.2669
    -3.8931  -3.3816  -3.1603  -2.3593  -2.2843  -1.8315  -1.5897  -1.2608
    -1.2093  -1.1734  -0.7447  -0.5928  -0.5101  -0.1042  -0.0734   0.1093
     0.1192   0.4787   0.9529   1.1783   1.1893   1.5880   1.9535   2.0175
     2.3414   2.6630   3.0417   3.0513

          k = 0.2500-0.5000 0.0000 ( 47812 PWs)   bands (ev):

    -5.7318  -5.7318  -5.4735  -5.4735  -5.0586  -5.0586  -4.4829  -4.4829
    -3.7468  -3.7468  -2.8650  -2.8650  -1.8494  -1.8494  -1.3244  -1.3244
    -1.0673  -1.0673  -0.7726  -0.7726  -0.5677  -0.5677  -0.0936  -0.0936
     0.5969   0.5969   0.6188   0.6188   1.4804   1.4804   2.0444   2.0444
     2.5182   2.5182   2.7881   2.7881

          k = 0.3125 0.3125 0.0000 ( 47893 PWs)   bands (ev):

    -6.7882  -6.5282  -6.1104  -5.5306  -4.7893  -3.9008  -3.4385  -3.4385
    -3.1846  -3.1846  -2.8742  -2.7772  -2.7772  -2.2129  -2.2129  -1.7142
    -1.4771  -1.4771  -0.5997  -0.5997  -0.4489  -0.1801   0.1171   0.3983
     0.3983   0.4965   1.0487   1.0760   1.5362   1.5362   1.7711   1.8066
     2.6327   2.7975   2.7975   3.5951

          k = 0.3125 0.3750 0.0000 ( 47901 PWs)   bands (ev):

    -6.3999  -6.1405  -5.7237  -5.1454  -4.4060  -4.1629  -3.9074  -3.5199
    -3.4975  -3.0600  -2.9292  -2.8065  -2.4966  -2.3989  -2.2107  -1.8160
    -1.3452  -1.3400  -1.0752  -0.8759  -0.6408  -0.3188  -0.2169  -0.2042
    -0.0260   0.3489   0.7218   0.8858   1.0488   1.4548   1.8571   1.8885
     2.1563   2.2106   2.9247   3.1030

          k = 0.3125 0.4375 0.0000 ( 47892 PWs)   bands (ev):

    -5.9423  -5.6837  -5.2682  -4.8227  -4.6916  -4.5660  -4.1538  -3.9545
    -3.5820  -3.0715  -2.8526  -2.6132  -2.3596  -2.0542  -2.0320  -1.8914
    -1.5236  -1.3945  -1.2660  -0.9713  -0.9363  -0.7709  -0.6556  -0.2913
     0.1962   0.2058   0.3950   0.4225   1.2093   1.2857   1.4619   1.8448
     2.3259   2.3497   2.5904   2.9101

          k = 0.3125-0.5000 0.0000 ( 47848 PWs)   bands (ev):

    -5.4163  -5.4163  -5.1585  -5.1585  -4.7445  -4.7445  -4.1701  -4.1701
    -3.4359  -3.4359  -2.5580  -2.5580  -2.0997  -2.0997  -1.8571  -1.8571
    -1.5321  -1.5321  -1.4398  -1.4398  -0.8598  -0.8598  -0.3753  -0.3753
    -0.1449  -0.1449   0.6889   0.6889   0.9234   0.9234   1.6926   1.6926
     2.4006   2.4006   2.7815   2.7815

          k = 0.3750 0.3750 0.0000 ( 47894 PWs)   bands (ev):

    -6.0126  -5.7538  -5.3381  -4.7613  -4.0239  -3.7819  -3.7819  -3.5273
    -3.5273  -3.1404  -3.1188  -3.1188  -2.5527  -2.5527  -2.1226  -1.8150
    -1.8150  -1.5904  -1.3326  -1.0376  -0.9377  -0.9377  -0.8390  -0.3575
     0.0638   0.0639   0.3275   0.3568   1.2050   1.2050   1.2205   1.7780
     2.2614   2.4701   2.4701   2.5244

          k = 0.3750 0.4375 0.0000 ( 47880 PWs)   bands (ev):

    -5.5562  -5.2982  -4.8838  -4.4398  -4.3089  -4.1837  -3.7730  -3.5740
    -3.3334  -3.2034  -3.0793  -2.6952  -2.6708  -2.4830  -2.2345  -2.0872
    -1.9915  -1.6680  -1.6086  -1.5737  -1.3483  -0.9942  -0.5903  -0.5114
    -0.4842  -0.2778   0.4537   0.5560   0.6203   0.7900   1.5612   1.5920
     1.8932   2.2685   2.6507   2.8410

          k = 0.3750-0.5000 0.0000 ( 47954 PWs)   bands (ev):

    -5.0317  -5.0316  -4.7745  -4.7745  -4.3617  -4.3617  -3.7891  -3.7891
    -3.0585  -3.0585  -2.8170  -2.8170  -2.5629  -2.5629  -2.2348  -2.2348
    -2.0958  -2.0958  -1.5953  -1.5953  -1.1415  -1.1415  -0.8572  -0.8572
    -0.0061  -0.0061   0.0059   0.0059   1.0112   1.0112   1.2618   1.2618
     2.1534   2.1534   2.7126   2.7126

          k = 0.4375 0.4375 0.0000 ( 47946 PWs)   bands (ev):

    -5.1014  -4.8441  -4.4311  -3.9886  -3.9886  -3.8582  -3.7337  -3.7337
    -3.3245  -3.3245  -3.1273  -2.8851  -2.7574  -2.7574  -2.6309  -2.3025
    -2.1641  -2.0186  -2.0186  -1.6624  -1.2100  -1.1414  -1.1414  -0.9246
    -0.1378  -0.1378  -0.0736  -0.0609   0.9449   1.0052   1.0052   1.1949
     2.0878   2.2724   2.2724   2.6464

          k = 0.4375-0.5000 0.0000 ( 47970 PWs)   bands (ev):

    -4.5785  -4.5785  -4.3222  -4.3222  -3.9110  -3.9110  -3.4705  -3.4705
    -3.3409  -3.3409  -3.2161  -3.2161  -2.8071  -2.8071  -2.6194  -2.6194
    -2.2233  -2.2233  -1.7432  -1.7432  -1.4854  -1.4854  -0.7265  -0.7265
    -0.6182  -0.6182   0.3191   0.3191   0.4870   0.4870   1.4589   1.4589
     1.7611   1.7611   2.7094   2.7094

          k =-0.5000-0.5000 0.0000 ( 47904 PWs)   bands (ev):

    -4.0577  -4.0577  -4.0577  -4.0577  -3.8026  -3.8026  -3.8026  -3.8026
    -3.3931  -3.3931  -3.3931  -3.3931  -2.8257  -2.8257  -2.8257  -2.8257
    -2.0866  -2.0866  -2.0866  -2.0866  -1.2095  -1.2095  -1.2095  -1.2095
    -0.2052  -0.2052  -0.2052  -0.2052   0.9385   0.9385   0.9385   0.9385
     2.2064   2.2064   2.2064   2.2064

     the Fermi energy is     2.5993 ev

!    total energy              =    -249.18963781 Ry
     Harris-Foulkes estimate   =    -249.18963894 Ry
     estimated scf accuracy    <       0.00000031 Ry

     The total energy is the sum of the following terms:

     one-electron contribution =   -1701.98730209 Ry
     hartree contribution      =     869.04041050 Ry
     xc contribution           =    -200.28276532 Ry
     ewald contribution        =     784.04069261 Ry
     smearing contrib. (-TS)   =      -0.00067350 Ry

     convergence has been achieved in  21 iterations

     negative rho (up, down):  6.334E-06 0.000E+00

     Forces acting on atoms (cartesian axes, Ry/au):

     atom    1 type  1   force =     0.00000000    0.00000000   -0.00321198
     atom    2 type  1   force =     0.00000000    0.00000000   -0.00321160
     atom    3 type  1   force =     0.00000000    0.00000000    0.00217007
     atom    4 type  1   force =     0.00000000    0.00000000    0.00217007
     atom    5 type  1   force =     0.00000000    0.00000000    0.00083480
     atom    6 type  1   force =     0.00000000    0.00000000    0.00083486
     atom    7 type  1   force =     0.00000000    0.00000000    0.00095022
     atom    8 type  1   force =     0.00000000    0.00000000    0.00095022
     atom    9 type  1   force =     0.00000000    0.00000000    0.00027777
     atom   10 type  1   force =     0.00000000    0.00000000    0.00027771
     atom   11 type  1   force =     0.00000000    0.00000000   -0.00027720
     atom   12 type  1   force =     0.00000000    0.00000000   -0.00027720
     atom   13 type  1   force =     0.00000000    0.00000000   -0.00095133
     atom   14 type  1   force =     0.00000000    0.00000000   -0.00095118
     atom   15 type  1   force =     0.00000000    0.00000000   -0.00083504
     atom   16 type  1   force =     0.00000000    0.00000000   -0.00083504
     atom   17 type  1   force =     0.00000000    0.00000000   -0.00216925
     atom   18 type  1   force =     0.00000000    0.00000000   -0.00216966
     atom   19 type  1   force =     0.00000000    0.00000000    0.00321190
     atom   20 type  1   force =     0.00000000    0.00000000    0.00321190

     Total force =     0.008174     Total SCF correction =     0.000605


     Computing stress (Cartesian axis) and pressure


     negative rho (up, down):  6.334E-06 0.000E+00
          total   stress  (Ry/bohr**3)                   (kbar)     P=   -4.73
  -0.00005436   0.00000000   0.00000000         -8.00      0.00      0.00
   0.00000000  -0.00005436   0.00000000          0.00     -8.00      0.00
   0.00000000   0.00000000   0.00001235          0.00      0.00      1.82


     BFGS Geometry Optimization

     number of scf cycles    =   1
     number of bfgs steps    =   0

     energy   new            =    -249.1896378091 Ry

     new trust radius        =       0.0032119839 bohr
     new conv_thr            =       0.0000010000 Ry


ATOMIC_POSITIONS (crystal)
Al       0.000000000   0.000000000  -0.000046928
Al       0.500000000   0.500000000  -0.000046922
Al       0.500000000   0.000000000   0.055587261
Al       0.000000000   0.500000000   0.055587261
Al       0.000000000   0.000000000   0.111123308
Al       0.500000000   0.500000000   0.111123309
Al       0.500000000   0.000000000   0.166680550
Al       0.000000000   0.500000000   0.166680550
Al       0.000000000   0.000000000   0.222226281
Al       0.500000000   0.500000000   0.222226280
Al       0.500000000   0.000000000   0.277773728
Al       0.000000000   0.500000000   0.277773728
Al       0.000000000   0.000000000   0.333319434
Al       0.500000000   0.500000000   0.333319436
Al       0.500000000   0.000000000   0.388876689
Al       0.000000000   0.500000000   0.388876689
Al       0.000000000   0.000000000   0.444412751
Al       0.500000000   0.500000000   0.444412745
Al       0.500000000   0.000000000   0.500046927
Al       0.000000000   0.500000000   0.500046927



     Writing output data file Al_100_5_4.save/
     NEW-OLD atomic charge density approx. for the potential

     negative rho (up, down):  6.188E-06 0.000E+00

     total cpu time spent up to now is     1453.7 secs

     Self-consistent Calculation

     iteration #  1     ecut=    80.00 Ry     beta= 0.30
     Davidson diagonalization with overlap
     ethr =  1.00E-06,  avg # of iterations =  2.0

     negative rho (up, down):  4.565E-06 0.000E+00

     total cpu time spent up to now is     1521.9 secs

     total energy              =    -249.18970282 Ry
     Harris-Foulkes estimate   =    -249.18970474 Ry
     estimated scf accuracy    <       0.00011282 Ry

     iteration #  2     ecut=    80.00 Ry     beta= 0.30
     Davidson diagonalization with overlap
     ethr =  1.88E-07,  avg # of iterations =  1.3

     negative rho (up, down):  1.515E-06 0.000E+00

     total cpu time spent up to now is     1578.3 secs

     total energy              =    -249.18969748 Ry
     Harris-Foulkes estimate   =    -249.18970427 Ry
     estimated scf accuracy    <       0.00007533 Ry

     iteration #  3     ecut=    80.00 Ry     beta= 0.30
     Davidson diagonalization with overlap
     ethr =  1.26E-07,  avg # of iterations =  1.5

     negative rho (up, down):  2.243E-06 0.000E+00

     total cpu time spent up to now is     1634.5 secs

     total energy              =    -249.18970138 Ry
     Harris-Foulkes estimate   =    -249.18970201 Ry
     estimated scf accuracy    <       0.00001017 Ry

     iteration #  4     ecut=    80.00 Ry     beta= 0.30
     Davidson diagonalization with overlap
     ethr =  1.69E-08,  avg # of iterations =  2.0

     negative rho (up, down):  6.328E-06 0.000E+00

     total cpu time spent up to now is     1692.8 secs

     End of self-consistent calculation

          k = 0.0000 0.0000 0.0000 ( 47879 PWs)   bands (ev):

    -8.5672  -8.3033  -7.8798  -7.2924  -6.5430  -5.6463  -4.6091  -3.4341
    -2.1323  -0.6366  -0.2874  -0.2874  -0.0445  -0.0445   0.1631   0.3451
     0.3451   0.8873   0.8873   1.0757   1.0757   1.3274   1.3274   1.5827
     1.5827   1.7264   1.7264   2.2601   2.2601   2.2872   2.4195   2.4195
     3.0629   3.0629   3.3949   3.3949

          k = 0.0000 0.0625 0.0000 ( 47817 PWs)   bands (ev):

    -8.5314  -8.2676  -7.8441  -7.2569  -6.5076  -5.6112  -4.5742  -3.3995
    -2.0979  -0.8591  -0.6115  -0.6024  -0.2546  -0.2149  -0.0117   0.1962
     0.3348   0.3780   0.9201   1.0327   1.1103   1.3657   1.6155   1.7085
     1.7134   1.9194   1.9766   2.2542   2.3204   2.4054   2.4523   2.7918
     2.9212   3.2301   3.4277   3.5508

          k = 0.0000 0.1250 0.0000 ( 47819 PWs)   bands (ev):

    -8.4241  -8.1605  -7.7373  -7.1505  -6.4017  -5.5058  -4.4696  -3.2956
    -1.9949  -1.7629  -1.5118  -1.1094  -0.5517  -0.5000  -0.1562   0.0868
     0.1587   0.2956   0.4764   0.9981   1.0185   1.2154   1.4532   1.7140
     1.8853   1.9753   2.4195   2.5321   2.5508   2.7959   3.0189   3.1600
     3.2059   3.4016   3.5260   4.0284

          k = 0.0000 0.1875 0.0000 ( 47794 PWs)   bands (ev):

    -8.2455  -7.9821  -7.5595  -6.9733  -6.2253  -5.3304  -4.2953  -3.1227
    -2.6615  -2.4080  -2.0017  -1.8235  -1.4384  -0.7202  -0.3296   0.0079
     0.1365   0.2508   0.4611   0.6405   1.1086   1.1826   1.3790   1.6582
     1.8781   1.9585   2.4180   2.5834   2.6738   2.7148   3.3655   3.5506
     3.6899   3.9915   4.1094   4.1759

          k = 0.0000 0.2500 0.0000 ( 47832 PWs)   bands (ev):

    -7.9958  -7.7328  -7.3108  -6.7255  -5.9787  -5.0852  -4.0517  -3.5122
    -3.2569  -2.8809  -2.8476  -2.2800  -1.5840  -1.5560  -0.6909  -0.0917
     0.2376   0.3054   0.4806   0.6926   0.8703   1.3923   1.4124   1.6428
     1.8535   2.1078   2.3760   2.7794   2.8093   2.9105   2.9444   3.5989
     3.9192   4.2060   4.3184   4.4159

          k = 0.0000 0.3125 0.0000 ( 47800 PWs)   bands (ev):

    -7.6754  -7.4129  -6.9917  -6.4076  -5.6623  -4.7706  -4.3044  -4.0476
    -3.7391  -3.6358  -3.0647  -2.5708  -2.3361  -1.4648  -1.2768  -0.4588
     0.2130   0.5331   0.6730   0.7760   0.9900   1.1657   1.7078   1.8294
     1.9125   2.3565   2.4032   2.6575   3.0895   3.2084   3.2396   3.4467
     3.6869   3.9298   3.9523   4.1134

          k = 0.0000 0.3750 0.0000 ( 47828 PWs)   bands (ev):

    -7.2847  -7.0228  -6.6027  -6.0200  -5.2766  -5.0338  -4.7757  -4.3870
    -4.3617  -3.7876  -3.3581  -3.0551  -2.1928  -2.1789  -1.1663  -0.9025
    -0.0222   0.5831   0.8942   1.1372   1.2289   1.3529   1.5269   2.0690
     2.2007   2.6303   2.7642   2.8575   2.9968   3.0228   3.2397   3.3946
     3.4181   3.6005   3.6149   3.6292

          k = 0.0000 0.4375 0.0000 ( 47840 PWs)   bands (ev):

    -6.8243  -6.5633  -6.1444  -5.6978  -5.5634  -5.4386  -5.0228  -4.8221
    -4.4461  -3.9352  -3.7102  -2.9093  -2.8299  -1.8121  -1.7477  -0.6605
    -0.4622   0.6093   1.0162   1.3212   1.5641   1.7809   1.9538   2.0209
     2.3725   2.4958   2.6154   2.8221   2.8352   3.0050   3.0542   3.1909
     3.4542   3.5432   3.5467   4.0532

          k = 0.0000-0.5000 0.0000 ( 47822 PWs)   bands (ev):

    -6.2951  -6.2951  -6.0349  -6.0349  -5.6174  -5.6174  -5.0384  -5.0384
    -4.2996  -4.2996  -3.4158  -3.4158  -2.3936  -2.3936  -1.2364  -1.2364
     0.0427   0.0427   1.5062   1.5062   1.8139   1.8139   2.0569   2.0569
     2.2727   2.2727   2.4465   2.4465   2.9884   2.9884   3.2344   3.2344
     3.5319   3.5319   3.6833   3.6833

          k = 0.0625 0.0625 0.0000 ( 47799 PWs)   bands (ev):

    -8.4956  -8.2319  -7.8085  -7.2214  -6.4723  -5.5761  -4.5393  -3.3649
    -2.0636  -0.8257  -0.8257  -0.5782  -0.5782  -0.5683  -0.1819  -0.1819
     0.2293   0.3673   0.3673   1.0733   1.0734   1.7402   1.7402   1.9144
     1.9144   1.9872   1.9872   2.3533   2.3980   2.3980   2.8064   2.8064
     3.0560   3.0560   3.7033   3.7033

          k = 0.0625 0.1250 0.0000 ( 47788 PWs)   bands (ev):

    -8.3884  -8.1248  -7.7017  -7.1150  -6.3664  -5.4707  -4.4347  -3.2610
    -1.9606  -1.7290  -1.4780  -1.0760  -0.7256  -0.5193  -0.4783  -0.4659
    -0.0815   0.1832   0.3286   0.4821   1.0160   1.2143   1.8420   1.9694
     2.0256   2.1578   2.4517   2.4758   2.8263   2.9568   3.0881   3.1081
     3.2332   3.4582   3.7185   3.9815

          k = 0.0625 0.1875 0.0000 ( 47821 PWs)   bands (ev):

    -8.2098  -7.9465  -7.5239  -6.9378  -6.1901  -5.2954  -4.2605  -3.0881
    -2.6272  -2.3738  -1.9677  -1.7893  -1.4049  -0.6884  -0.5585  -0.3106
    -0.2957   0.0578   0.2008   0.4941   0.6320   1.1786   1.3523   1.9949
     2.1911   2.2582   2.2614   2.6135   2.7702   3.1708   3.2611   3.5943
     3.9412   4.0215   4.1259   4.2687

          k = 0.0625 0.2500 0.0000 ( 47839 PWs)   bands (ev):

    -7.9602  -7.6972  -7.2753  -6.6902  -5.9436  -5.0502  -4.0169  -3.4777
    -3.2225  -2.8464  -2.8133  -2.2460  -1.5499  -1.5224  -0.6594  -0.3247
    -0.0826  -0.0580   0.3204   0.3404   0.7255   0.8889   1.4732   1.5852
     2.2434   2.3875   2.4416   2.8304   2.8812   2.9561   3.3987   3.4979
     3.9568   4.0781   4.1217   4.3217

          k = 0.0625 0.3125 0.0000 ( 47799 PWs)   bands (ev):

    -7.6398  -7.3774  -6.9563  -6.3724  -5.6272  -4.7357  -4.2697  -4.0130
    -3.7045  -3.6013  -3.0303  -2.5364  -2.3020  -1.4313  -1.2428  -0.4283
    -0.0264   0.2251   0.2460   0.5714   0.7727   1.0228   1.1797   1.8804
     1.9543   2.5128   2.7253   2.8764   2.9871   3.2491   3.3365   3.3950
     3.4801   3.7433   3.7912   3.7987

          k = 0.0625 0.3750 0.0000 ( 47793 PWs)   bands (ev):

    -7.2492  -6.9874  -6.5674  -5.9849  -5.2416  -4.9988  -4.7408  -4.3522
    -4.3270  -3.7530  -3.3236  -3.0207  -2.1585  -2.1448  -1.1330  -0.8688
     0.0053   0.3436   0.5806   0.6147   0.9994   1.2924   1.3854   1.5439
     2.2404   2.4562   2.6171   2.7136   3.0786   3.0903   3.1088   3.2128
     3.4949   3.5170   3.6128   3.6571

          k = 0.0625 0.4375 0.0000 ( 47840 PWs)   bands (ev):

    -6.7890  -6.5280  -6.1092  -5.6628  -5.5283  -5.4036  -4.9879  -4.7872
    -4.4113  -3.9005  -3.6756  -2.8749  -2.7955  -1.7781  -1.7136  -0.6277
    -0.4291   0.6253   0.7687   1.0407   1.0516   1.4268   1.8121   1.8511
     1.9732   2.0908   2.1081   2.4840   2.6806   2.8567   3.0326   3.3796
     3.5271   3.6376   3.7185   3.8409

          k = 0.0625-0.5000 0.0000 ( 47854 PWs)   bands (ev):

    -6.2599  -6.2599  -5.9997  -5.9997  -5.5823  -5.5823  -5.0035  -5.0035
    -4.2649  -4.2649  -3.3812  -3.3812  -2.3594  -2.3594  -1.2028  -1.2028
     0.0741   0.0741   1.2337   1.2337   1.5307   1.5307   1.5948   1.5948
     1.9228   1.9228   2.2989   2.2989   2.4773   2.4773   3.1723   3.1723
     3.7672   3.7672   4.0155   4.0158

          k = 0.1250 0.1250 0.0000 ( 47769 PWs)   bands (ev):

    -8.2812  -8.0178  -7.5950  -7.0087  -6.2606  -5.3655  -4.3301  -3.1572
    -1.8578  -1.6275  -1.6275  -1.3769  -1.3769  -0.9756  -0.9756  -0.4204
    -0.4204  -0.3638   0.3002   0.3002   0.4279   1.1654   1.1654   2.1393
     2.1393   2.5470   2.9166   2.9166   3.1589   3.1589   3.2335   3.2335
     3.6550   3.6550   4.1323   4.1326

          k = 0.1250 0.1875 0.0000 ( 47760 PWs)   bands (ev):

    -8.1028  -7.8396  -7.4173  -6.8317  -6.0844  -5.1903  -4.1561  -2.9845
    -2.5246  -2.2715  -1.8661  -1.6867  -1.4586  -1.3047  -1.2082  -0.8064
    -0.5976  -0.2314  -0.1941   0.2498   0.5111   0.5931   1.2723   1.3397
     2.2818   2.4263   2.6968   3.0921   3.2616   3.4211   3.7785   3.7824
     3.9262   3.9816   4.1266   4.3118

          k = 0.1250 0.2500 0.0000 ( 47813 PWs)   bands (ev):

    -7.8533  -7.5906  -7.1689  -6.5842  -5.8380  -4.9453  -3.9127  -3.3743
    -3.1192  -2.7430  -2.7105  -2.1440  -1.4476  -1.4230  -1.2217  -0.9708
    -0.6312  -0.4915  -0.0201   0.0426   0.4737   0.7151   0.8243   1.5622
     1.5867   2.5504   2.7988   2.8093   3.2450   3.2813   3.2993   3.6348
     3.6817   3.6940   4.0102   4.2362

          k = 0.1250 0.3125 0.0000 ( 47843 PWs)   bands (ev):

    -7.5332  -7.2709  -6.8502  -6.2666  -5.5219  -4.6310  -4.1656  -3.9090
    -3.6005  -3.4977  -2.9273  -2.4333  -2.1999  -1.3322  -1.1410  -0.9176
    -0.6764  -0.3206  -0.2649   0.3144   0.3444   0.8313   1.0166   1.1210
     1.8484   2.0992   2.2740   2.5419   2.8357   2.9406   3.3144   3.4018
     3.4931   3.8153   3.9126   3.9268

          k = 0.1250 0.3750 0.0000 ( 47819 PWs)   bands (ev):

    -7.1429  -6.8813  -6.4615  -5.8794  -5.1366  -4.8942  -4.6363  -4.2478
    -4.2228  -3.6493  -3.2199  -2.9176  -2.0559  -2.0429  -1.0351  -0.7680
    -0.5497  -0.2942   0.0139   0.2231   0.6738   0.7038   1.3799   1.3934
     1.4819   1.6131   1.8541   2.2324   2.2504   2.8033   2.8136   3.2526
     3.4896   3.5714   3.6667   4.0197

          k = 0.1250 0.4375 0.0000 ( 47791 PWs)   bands (ev):

    -6.6830  -6.4221  -6.0036  -5.5576  -5.4232  -5.2986  -4.8831  -4.6825
    -4.3070  -3.7964  -3.5719  -2.7717  -2.6926  -1.6766  -1.6117  -0.5334
    -0.3308  -0.1085   0.1261   0.5593   0.7766   0.8928   1.1077   1.2265
     1.2335   1.6212   1.8055   1.9042   2.1799   2.2383   2.6421   2.8798
     2.9875   3.6575   3.7292   4.0397

          k = 0.1250-0.5000 0.0000 ( 47842 PWs)   bands (ev):

    -6.1542  -6.1542  -5.8942  -5.8942  -5.4772  -5.4772  -4.8987  -4.8987
    -4.1606  -4.1606  -3.2777  -3.2777  -2.2568  -2.2568  -1.1023  -1.1023
     0.1559   0.1559   0.3842   0.3842   0.6793   0.6793   1.0560   1.0560
     1.6058   1.6058   1.6715   1.6715   2.3216   2.3216   2.3986   2.3986
     3.1752   3.1752   4.1317   4.1317

          k = 0.1875 0.1875 0.0000 ( 47793 PWs)   bands (ev):

    -7.9245  -7.6617  -7.2399  -6.6548  -5.9084  -5.0153  -3.9822  -2.8120
    -2.3538  -2.3538  -2.1013  -2.1013  -1.6969  -1.6969  -1.5159  -1.1374
    -1.1373  -0.4090  -0.4090  -0.0254   0.4634   0.4634   0.7581   1.4488
     1.4488   2.5722   2.5722   2.7338   3.2009   3.2320   3.6469   3.7963
     3.7963   4.1890   4.2723   4.2723

          k = 0.1875 0.2500 0.0000 ( 47795 PWs)   bands (ev):

    -7.6754  -7.4129  -6.9918  -6.4076  -5.6623  -4.7706  -3.7392  -3.2020
    -2.9474  -2.5709  -2.5396  -2.1153  -1.9748  -1.8630  -1.4582  -1.2774
    -1.2633  -0.8780  -0.4067  -0.1339   0.2088   0.6187   0.7047   0.9886
     1.6451   1.8002   2.1631   2.4345   2.7677   2.8345   3.0559   3.1956
     3.3885   3.9932   4.0978   4.3649

          k = 0.1875 0.3125 0.0000 ( 47802 PWs)   bands (ev):

    -7.3556  -7.0937  -6.6734  -6.0904  -5.3466  -4.4567  -3.9923  -3.7360
    -3.4274  -3.3253  -2.7560  -2.2618  -2.0315  -1.8085  -1.5558  -1.2260
    -1.0822  -0.9720  -0.5983  -0.1245   0.1409   0.5010   0.9934   0.9970
     1.2835   1.4411   1.6831   1.9882   2.0807   2.2517   2.6354   3.1201
     3.3198   3.4917   3.6720   4.1834

          k = 0.1875 0.3750 0.0000 ( 47823 PWs)   bands (ev):

    -6.9658  -6.7045  -6.2852  -5.7037  -4.9617  -4.7199  -4.4623  -4.0740
    -4.0493  -3.4766  -3.0474  -2.7462  -1.8852  -1.8748  -1.4344  -1.1926
    -0.8566  -0.7772  -0.6017  -0.1956   0.2987   0.5121   0.6419   0.9778
     0.9889   1.3436   1.3850   1.5838   1.6397   1.9460   2.3384   2.6480
     3.0466   3.4263   3.5002   3.8253

          k = 0.1875 0.4375 0.0000 ( 47828 PWs)   bands (ev):

    -6.5064  -6.2459  -5.8278  -5.3824  -5.2481  -5.1237  -4.7088  -4.5083
    -4.1333  -3.6233  -3.3992  -2.6000  -2.5215  -1.5099  -1.4426  -0.9968
    -0.7395  -0.4427  -0.2331  -0.1805   0.0752   0.2338   0.3730   0.7517
     0.9303   0.9436   1.3035   1.3416   1.8005   2.0232   2.0690   2.3720
     2.8321   2.8804   3.1151   3.8408

          k = 0.1875-0.5000 0.0000 ( 47810 PWs)   bands (ev):

    -5.9784  -5.9784  -5.7187  -5.7187  -5.3021  -5.3021  -4.7243  -4.7243
    -3.9871  -3.9871  -3.1053  -3.1053  -2.0863  -2.0863  -0.9393  -0.9393
    -0.4859  -0.4859  -0.2512  -0.2512   0.1859   0.1859   0.3773   0.3773
     0.7373   0.7373   1.4358   1.4358   1.8506   1.8506   2.2725   2.2725
     2.6005   2.6005   3.2995   3.2995

          k = 0.2500 0.2500 0.0000 ( 47859 PWs)   bands (ev):

    -7.4266  -7.1646  -6.7441  -6.1609  -5.4167  -4.5264  -3.4966  -2.9614
    -2.9614  -2.7076  -2.7076  -2.3304  -2.3008  -2.3008  -1.7380  -1.7380
    -1.0401  -1.0051  -1.0051  -0.1304  -0.1304   0.4333   0.8615   0.8615
     1.2173   1.3812   1.6235   1.9940   1.9940   2.0215   2.5767   3.2485
     3.2485   3.2605   3.4303   4.1258

          k = 0.2500 0.3125 0.0000 ( 47856 PWs)   bands (ev):

    -7.1074  -6.8459  -6.4262  -5.8442  -5.1016  -4.2131  -3.7500  -3.4943
    -3.1855  -3.0846  -2.6530  -2.5172  -2.3994  -2.0222  -1.9924  -1.8020
    -1.4095  -0.9380  -0.7375  -0.6671   0.0848   0.1814   0.5136   0.8472
     0.8651   1.1198   1.2619   1.2802   1.5073   1.8238   2.2502   2.5268
     2.5462   3.3803   3.4913   3.6924

          k = 0.2500 0.3750 0.0000 ( 47843 PWs)   bands (ev):

    -6.7182  -6.4573  -6.0387  -5.4581  -4.7174  -4.4762  -4.2191  -3.8311
    -3.8069  -3.2355  -2.8064  -2.5082  -2.2761  -2.0223  -1.6948  -1.6473
    -1.5513  -1.0591  -0.5970  -0.3827  -0.3197  -0.1163   0.1819   0.5306
     0.5369   0.5619   1.1148   1.1411   1.5361   1.7925   1.8366   1.8708
     2.6730   2.6956   3.2346   3.6566

          k = 0.2500 0.4375 0.0000 ( 47865 PWs)   bands (ev):

    -6.2597  -5.9995  -5.5821  -5.1376  -5.0033  -4.8793  -4.4651  -4.2647
    -3.8907  -3.3813  -3.1582  -2.3604  -2.2840  -1.8322  -1.5895  -1.2616
    -1.2107  -1.1720  -0.7454  -0.5905  -0.5098  -0.1056  -0.0721   0.1080
     0.1214   0.4812   0.9529   1.1804   1.1883   1.5862   1.9525   2.0176
     2.3399   2.6612   3.0405   3.0503

          k = 0.2500-0.5000 0.0000 ( 47812 PWs)   bands (ev):

    -5.7325  -5.7325  -5.4732  -5.4732  -5.0573  -5.0573  -4.4805  -4.4805
    -3.7446  -3.7446  -2.8647  -2.8647  -1.8504  -1.8504  -1.3251  -1.3251
    -1.0669  -1.0669  -0.7726  -0.7726  -0.5677  -0.5677  -0.0911  -0.0911
     0.5956   0.5956   0.6211   0.6211   1.4808   1.4808   2.0425   2.0425
     2.5172   2.5172   2.7865   2.7865

          k = 0.3125 0.3125 0.0000 ( 47893 PWs)   bands (ev):

    -6.7889  -6.5279  -6.1091  -5.5282  -4.7871  -3.9005  -3.4392  -3.4392
    -3.1843  -3.1843  -2.8753  -2.7759  -2.7759  -2.2106  -2.2106  -1.7156
    -1.4747  -1.4747  -0.5995  -0.5995  -0.4501  -0.1808   0.1173   0.3973
     0.3973   0.4978   1.0511   1.0740   1.5349   1.5349   1.7735   1.8047
     2.6331   2.7963   2.7963   3.5943

          k = 0.3125 0.3750 0.0000 ( 47901 PWs)   bands (ev):

    -6.4006  -6.1402  -5.7224  -5.1430  -4.4038  -4.1636  -3.9071  -3.5196
    -3.4961  -3.0607  -2.9268  -2.8062  -2.4976  -2.3977  -2.2087  -1.8134
    -1.3466  -1.3392  -1.0734  -0.8766  -0.6405  -0.3199  -0.2165  -0.2029
    -0.0273   0.3514   0.7204   0.8848   1.0509   1.4530   1.8557   1.8886
     2.1551   2.2092   2.9237   3.1020

          k = 0.3125 0.4375 0.0000 ( 47892 PWs)   bands (ev):

    -5.9430  -5.6834  -5.2669  -4.8234  -4.6892  -4.5657  -4.1524  -3.9523
    -3.5796  -3.0712  -2.8504  -2.6139  -2.3593  -2.0553  -2.0317  -1.8900
    -1.5244  -1.3920  -1.2657  -0.9713  -0.9374  -0.7709  -0.6534  -0.2888
     0.1948   0.2061   0.3936   0.4248   1.2083   1.2862   1.4607   1.8429
     2.3249   2.3485   2.5887   2.9085

          k = 0.3125-0.5000 0.0000 ( 47848 PWs)   bands (ev):

    -5.4170  -5.4170  -5.1582  -5.1582  -4.7432  -4.7432  -4.1677  -4.1677
    -3.4337  -3.4337  -2.5577  -2.5577  -2.1004  -2.1004  -1.8570  -1.8570
    -1.5328  -1.5328  -1.4384  -1.4384  -0.8575  -0.8575  -0.3768  -0.3768
    -0.1426  -0.1426   0.6889   0.6889   0.9225   0.9225   1.6915   1.6915
     2.3988   2.3988   2.7804   2.7804

          k = 0.3750 0.3750 0.0000 ( 47894 PWs)   bands (ev):

    -6.0133  -5.7535  -5.3368  -4.7589  -4.0217  -3.7826  -3.7826  -3.5270
    -3.5270  -3.1401  -3.1175  -3.1175  -2.5504  -2.5504  -2.1236  -1.8126
    -1.8126  -1.5911  -1.3323  -1.0377  -0.9374  -0.9374  -0.8390  -0.3551
     0.0628   0.0628   0.3262   0.3590   1.2037   1.2037   1.2209   1.7761
     2.2604   2.4689   2.4689   2.5228

          k = 0.3750 0.4375 0.0000 ( 47880 PWs)   bands (ev):

    -5.5569  -5.2979  -4.8825  -4.4404  -4.3065  -4.1834  -3.7716  -3.5718
    -3.3341  -3.2011  -3.0790  -2.6949  -2.6695  -2.4809  -2.2352  -2.0846
    -1.9914  -1.6688  -1.6078  -1.5723  -1.3464  -0.9919  -0.5914  -0.5128
    -0.4837  -0.2755   0.4522   0.5560   0.6193   0.7891   1.5602   1.5907
     1.8920   2.2666   2.6496   2.8400

          k = 0.3750-0.5000 0.0000 ( 47954 PWs)   bands (ev):

    -5.0323  -5.0323  -4.7742  -4.7742  -4.3604  -4.3604  -3.7867  -3.7867
    -3.0563  -3.0563  -2.8177  -2.8177  -2.5627  -2.5627  -2.2345  -2.2345
    -2.0944  -2.0944  -1.5928  -1.5928  -1.1425  -1.1425  -0.8550  -0.8550
    -0.0075  -0.0075   0.0063   0.0063   1.0102   1.0102   1.2605   1.2605
     2.1522   2.1522   2.7109   2.7109

          k = 0.4375 0.4375 0.0000 ( 47946 PWs)   bands (ev):

    -5.1021  -4.8438  -4.4298  -3.9893  -3.9893  -3.8558  -3.7334  -3.7334
    -3.3232  -3.3232  -3.1251  -2.8858  -2.7551  -2.7551  -2.6306  -2.3022
    -2.1628  -2.0163  -2.0163  -1.6599  -1.2110  -1.1412  -1.1412  -0.9224
    -0.1388  -0.1388  -0.0750  -0.0606   0.9439   1.0039   1.0039   1.1937
     2.0865   2.2713   2.2713   2.6448

          k = 0.4375-0.5000 0.0000 ( 47970 PWs)   bands (ev):

    -4.5792  -4.5792  -4.3219  -4.3219  -3.9097  -3.9097  -3.4712  -3.4712
    -3.3385  -3.3385  -3.2158  -3.2158  -2.8059  -2.8059  -2.6173  -2.6173
    -2.2207  -2.2207  -1.7424  -1.7424  -1.4835  -1.4835  -0.7276  -0.7276
    -0.6178  -0.6178   0.3176   0.3176   0.4861   0.4861   1.4576   1.4576
     1.7599   1.7599   2.7084   2.7084

          k =-0.5000-0.5000 0.0000 ( 47904 PWs)   bands (ev):

    -4.0584  -4.0584  -4.0584  -4.0584  -3.8023  -3.8023  -3.8023  -3.8023
    -3.3918  -3.3918  -3.3918  -3.3918  -2.8234  -2.8234  -2.8234  -2.8234
    -2.0843  -2.0843  -2.0843  -2.0843  -1.2092  -1.2092  -1.2092  -1.2092
    -0.2062  -0.2062  -0.2062  -0.2062   0.9372   0.9372   0.9372   0.9372
     2.2052   2.2052   2.2052   2.2052

     the Fermi energy is     2.5991 ev

!    total energy              =    -249.18970127 Ry
     Harris-Foulkes estimate   =    -249.18970184 Ry
     estimated scf accuracy    <       0.00000056 Ry

     The total energy is the sum of the following terms:

     one-electron contribution =   -1701.88500246 Ry
     hartree contribution      =     868.97879331 Ry
     xc contribution           =    -200.28092511 Ry
     ewald contribution        =     783.99809613 Ry
     smearing contrib. (-TS)   =      -0.00066314 Ry

     convergence has been achieved in   4 iterations

     negative rho (up, down):  6.328E-06 0.000E+00

     Forces acting on atoms (cartesian axes, Ry/au):

     atom    1 type  1   force =     0.00000000    0.00000000   -0.00292700
     atom    2 type  1   force =     0.00000000    0.00000000   -0.00292706
     atom    3 type  1   force =     0.00000000    0.00000000    0.00180990
     atom    4 type  1   force =     0.00000000    0.00000000    0.00180990
     atom    5 type  1   force =     0.00000000    0.00000000    0.00089930
     atom    6 type  1   force =     0.00000000    0.00000000    0.00089938
     atom    7 type  1   force =     0.00000000    0.00000000    0.00089647
     atom    8 type  1   force =     0.00000000    0.00000000    0.00089647
     atom    9 type  1   force =     0.00000000    0.00000000    0.00028183
     atom   10 type  1   force =     0.00000000    0.00000000    0.00028182
     atom   11 type  1   force =     0.00000000    0.00000000   -0.00028188
     atom   12 type  1   force =     0.00000000    0.00000000   -0.00028188
     atom   13 type  1   force =     0.00000000    0.00000000   -0.00089735
     atom   14 type  1   force =     0.00000000    0.00000000   -0.00089734
     atom   15 type  1   force =     0.00000000    0.00000000   -0.00089998
     atom   16 type  1   force =     0.00000000    0.00000000   -0.00089998
     atom   17 type  1   force =     0.00000000    0.00000000   -0.00180947
     atom   18 type  1   force =     0.00000000    0.00000000   -0.00180945
     atom   19 type  1   force =     0.00000000    0.00000000    0.00292816
     atom   20 type  1   force =     0.00000000    0.00000000    0.00292816

     Total force =     0.007359     Total SCF correction =     0.001358
     SCF correction compared to forces is large: reduce conv_thr to get better values


     Computing stress (Cartesian axis) and pressure


     negative rho (up, down):  6.328E-06 0.000E+00
          total   stress  (Ry/bohr**3)                   (kbar)     P=   -4.80
  -0.00005472   0.00000000   0.00000000         -8.05      0.00      0.00
   0.00000000  -0.00005472   0.00000000          0.00     -8.05      0.00
   0.00000000   0.00000000   0.00001155          0.00      0.00      1.70


     number of scf cycles    =   2
     number of bfgs steps    =   1

     energy   old            =    -249.1896378091 Ry
     energy   new            =    -249.1897012687 Ry

     CASE: energy  _new < energy  _old


     WARNING: bfgs curvature condition failed, Theta= 0.890
     new trust radius        =       0.0035331823 bohr
     new conv_thr            =       0.0000000100 Ry


ATOMIC_POSITIONS (crystal)
Al       0.000000000   0.000000000  -0.000098533
Al       0.500000000   0.500000000  -0.000098527
Al       0.500000000   0.000000000   0.055619743
Al       0.000000000   0.500000000   0.055619743
Al       0.000000000   0.000000000   0.111138689
Al       0.500000000   0.500000000   0.111138691
Al       0.500000000   0.000000000   0.166696250
Al       0.000000000   0.500000000   0.166696250
Al       0.000000000   0.000000000   0.222231151
Al       0.500000000   0.500000000   0.222231150
Al       0.500000000   0.000000000   0.277768858
Al       0.000000000   0.500000000   0.277768858
Al       0.000000000   0.000000000   0.333303717
Al       0.500000000   0.500000000   0.333303720
Al       0.500000000   0.000000000   0.388861297
Al       0.000000000   0.500000000   0.388861297
Al       0.000000000   0.000000000   0.444380277
Al       0.500000000   0.500000000   0.444380270
Al       0.500000000   0.000000000   0.500098547
Al       0.000000000   0.500000000   0.500098547



     Writing output data file Al_100_5_4.save/
     NEW-OLD atomic charge density approx. for the potential

     negative rho (up, down):  6.169E-06 0.000E+00

     total cpu time spent up to now is     1776.2 secs

     Self-consistent Calculation

     iteration #  1     ecut=    80.00 Ry     beta= 0.30
     Davidson diagonalization with overlap
     ethr =  1.00E-06,  avg # of iterations =  2.4

     negative rho (up, down):  2.876E-06 0.000E+00

     total cpu time spent up to now is     1850.7 secs

     total energy              =    -249.18977492 Ry
     Harris-Foulkes estimate   =    -249.18978706 Ry
     estimated scf accuracy    <       0.00101175 Ry

     iteration #  2     ecut=    80.00 Ry     beta= 0.30
     Davidson diagonalization with overlap
     ethr =  1.69E-06,  avg # of iterations =  1.0

     negative rho (up, down):  6.065E-08 0.000E+00

     total cpu time spent up to now is     1905.0 secs

     total energy              =    -249.18973820 Ry
     Harris-Foulkes estimate   =    -249.18977813 Ry
     estimated scf accuracy    <       0.00065904 Ry

     iteration #  3     ecut=    80.00 Ry     beta= 0.30
     Davidson diagonalization with overlap
     ethr =  1.10E-06,  avg # of iterations =  1.5

     negative rho (up, down):  1.842E-07 0.000E+00

     total cpu time spent up to now is     1961.0 secs

     total energy              =    -249.18976087 Ry
     Harris-Foulkes estimate   =    -249.18976499 Ry
     estimated scf accuracy    <       0.00007562 Ry

     iteration #  4     ecut=    80.00 Ry     beta= 0.30
     Davidson diagonalization with overlap
     ethr =  1.26E-07,  avg # of iterations =  2.0

     negative rho (up, down):  2.482E-07 0.000E+00

     total cpu time spent up to now is     2020.2 secs

     total energy              =    -249.18976372 Ry
     Harris-Foulkes estimate   =    -249.18976383 Ry
     estimated scf accuracy    <       0.00000115 Ry

     iteration #  5     ecut=    80.00 Ry     beta= 0.30
     Davidson diagonalization with overlap
     ethr =  1.91E-09,  avg # of iterations =  3.6

     negative rho (up, down):  4.000E-07 0.000E+00

     total cpu time spent up to now is     2088.7 secs

     total energy              =    -249.18976375 Ry
     Harris-Foulkes estimate   =    -249.18976384 Ry
     estimated scf accuracy    <       0.00000043 Ry

     iteration #  6     ecut=    80.00 Ry     beta= 0.30
     Davidson diagonalization with overlap
     ethr =  7.23E-10,  avg # of iterations =  2.9

     negative rho (up, down):  4.796E-07 0.000E+00

     total cpu time spent up to now is     2155.2 secs

     total energy              =    -249.18976373 Ry
     Harris-Foulkes estimate   =    -249.18976380 Ry
     estimated scf accuracy    <       0.00000190 Ry

     iteration #  7     ecut=    80.00 Ry     beta= 0.30
     Davidson diagonalization with overlap
     ethr =  7.23E-10,  avg # of iterations =  1.2

     negative rho (up, down):  1.068E-06 0.000E+00

     total cpu time spent up to now is     2210.5 secs

     total energy              =    -249.18976367 Ry
     Harris-Foulkes estimate   =    -249.18976374 Ry
     estimated scf accuracy    <       0.00000072 Ry

     iteration #  8     ecut=    80.00 Ry     beta= 0.30
     Davidson diagonalization with overlap
     ethr =  7.23E-10,  avg # of iterations =  3.3

     negative rho (up, down):  1.457E-06 0.000E+00

     total cpu time spent up to now is     2283.7 secs

     total energy              =    -249.18976375 Ry
     Harris-Foulkes estimate   =    -249.18976375 Ry
     estimated scf accuracy    <       0.00000086 Ry

     iteration #  9     ecut=    80.00 Ry     beta= 0.30
     Davidson diagonalization with overlap
     ethr =  7.23E-10,  avg # of iterations =  1.0

     negative rho (up, down):  4.642E-06 0.000E+00

     total cpu time spent up to now is     2338.8 secs

     total energy              =    -249.18976372 Ry
     Harris-Foulkes estimate   =    -249.18976375 Ry
     estimated scf accuracy    <       0.00000071 Ry

     iteration # 10     ecut=    80.00 Ry     beta= 0.30
     Davidson diagonalization with overlap
     ethr =  7.23E-10,  avg # of iterations =  2.1

     negative rho (up, down):  5.013E-06 0.000E+00

     total cpu time spent up to now is     2400.6 secs

     total energy              =    -249.18976374 Ry
     Harris-Foulkes estimate   =    -249.18976374 Ry
     estimated scf accuracy    <       0.00000010 Ry

     iteration # 11     ecut=    80.00 Ry     beta= 0.30
     Davidson diagonalization with overlap
     ethr =  1.63E-10,  avg # of iterations =  1.2

     negative rho (up, down):  6.516E-06 0.000E+00

     total cpu time spent up to now is     2458.2 secs

     total energy              =    -249.18976373 Ry
     Harris-Foulkes estimate   =    -249.18976374 Ry
     estimated scf accuracy    <       0.00000014 Ry

     iteration # 12     ecut=    80.00 Ry     beta= 0.30
     Davidson diagonalization with overlap
     ethr =  1.63E-10,  avg # of iterations =  1.0

     negative rho (up, down):  6.164E-06 0.000E+00

     total cpu time spent up to now is     2513.2 secs

     total energy              =    -249.18976373 Ry
     Harris-Foulkes estimate   =    -249.18976373 Ry
     estimated scf accuracy    <       0.00000002 Ry

     iteration # 13     ecut=    80.00 Ry     beta= 0.30
     Davidson diagonalization with overlap
     ethr =  2.87E-11,  avg # of iterations =  2.3

     negative rho (up, down):  6.314E-06 0.000E+00

     total cpu time spent up to now is     2573.6 secs

     End of self-consistent calculation

          k = 0.0000 0.0000 0.0000 ( 47879 PWs)   bands (ev):

    -8.5667  -8.3016  -7.8769  -7.2886  -6.5395  -5.6446  -4.6087  -3.4342
    -2.1323  -0.6372  -0.2869  -0.2869  -0.0427  -0.0427   0.1626   0.3482
     0.3482   0.8913   0.8913   1.0763   1.0763   1.3292   1.3292   1.5866
     1.5866   1.7291   1.7291   2.2628   2.2628   2.2876   2.4215   2.4215
     3.0674   3.0674   3.3951   3.3951

          k = 0.0000 0.0625 0.0000 ( 47817 PWs)   bands (ev):

    -8.5309  -8.2658  -7.8413  -7.2531  -6.5041  -5.6094  -4.5738  -3.3996
    -2.0979  -0.8586  -0.6097  -0.6030  -0.2541  -0.2119  -0.0099   0.1957
     0.3388   0.3810   0.9242   1.0365   1.1109   1.3674   1.6195   1.7090
     1.7155   1.9224   1.9780   2.2581   2.3207   2.4075   2.4543   2.7942
     2.9215   3.2348   3.4279   3.5551

          k = 0.0000 0.1250 0.0000 ( 47819 PWs)   bands (ev):

    -8.4236  -8.1587  -7.7345  -7.1467  -6.3982  -5.5041  -4.4692  -3.2957
    -1.9950  -1.7624  -1.5100  -1.1065  -0.5478  -0.5006  -0.1557   0.0885
     0.1623   0.2951   0.4794   0.9998   1.0226   1.2159   1.4546   1.7179
     1.8883   1.9768   2.4198   2.5349   2.5527   2.7963   3.0208   3.1605
     3.2078   3.4038   3.5262   3.9511

          k = 0.0000 0.1875 0.0000 ( 47794 PWs)   bands (ev):

    -8.2450  -7.9804  -7.5566  -6.9695  -6.2218  -5.3287  -4.2949  -3.1227
    -2.6610  -2.4062  -1.9988  -1.8235  -1.4346  -0.7166  -0.3302   0.0084
     0.1383   0.2526   0.4606   0.6435   1.1090   1.1867   1.3794   1.6602
     1.8820   1.9609   2.4184   2.5838   2.6771   2.7168   3.3686   3.5505
     3.6901   3.9920   4.1083   4.1773

          k = 0.0000 0.2500 0.0000 ( 47832 PWs)   bands (ev):

    -7.9953  -7.7311  -7.3079  -6.7217  -5.9752  -5.0835  -4.0513  -3.5117
    -3.2552  -2.8810  -2.8447  -2.2762  -1.5840  -1.5524  -0.6890  -0.0923
     0.2381   0.3059   0.4824   0.6921   0.8733   1.3923   1.4165   1.6436
     1.8553   2.1117   2.3785   2.7794   2.8096   2.9140   2.9464   3.6019
     3.9195   4.2059   4.3174   4.4174

          k = 0.0000 0.3125 0.0000 ( 47800 PWs)   bands (ev):

    -7.6748  -7.4112  -6.9889  -6.4038  -5.6588  -4.7689  -4.3039  -4.0459
    -3.7388  -3.6329  -3.0609  -2.5708  -2.3325  -1.4630  -1.2768  -0.4584
     0.2124   0.5336   0.6730   0.7778   0.9895   1.1688   1.7120   1.8300
     1.9131   2.3577   2.4071   2.6602   3.0899   3.2119   3.2416   3.4463
     3.6874   3.9316   3.9555   4.1133

          k = 0.0000 0.3750 0.0000 ( 47828 PWs)   bands (ev):

    -7.2842  -7.0211  -6.5999  -6.0163  -5.2731  -5.0332  -4.7739  -4.3853
    -4.3588  -3.7838  -3.3577  -3.0515  -2.1928  -2.1771  -1.1659  -0.9025
    -0.0222   0.5825   0.8947   1.1390   1.2290   1.3525   1.5299   2.0731
     2.2011   2.6320   2.7682   2.8571   2.9973   3.0256   3.2415   3.3949
     3.4183   3.6024   3.6180   3.6322

          k = 0.0000 0.4375 0.0000 ( 47840 PWs)   bands (ev):

    -6.8238  -6.5615  -6.1415  -5.6973  -5.5596  -5.4369  -5.0199  -4.8186
    -4.4423  -3.9334  -3.7067  -2.9089  -2.8281  -1.8116  -1.7477  -0.6605
    -0.4622   0.6093   1.0157   1.3217   1.5659   1.7804   1.9569   2.0205
     2.3729   2.5000   2.6172   2.8219   2.8355   3.0080   3.0557   3.1949
     3.4570   3.5434   3.5509   4.0540

          k = 0.0000-0.5000 0.0000 ( 47822 PWs)   bands (ev):

    -6.2946  -6.2946  -6.0331  -6.0331  -5.6145  -5.6145  -5.0346  -5.0346
    -4.2961  -4.2961  -3.4140  -3.4140  -2.3932  -2.3932  -1.2365  -1.2365
     0.0427   0.0427   1.5057   1.5057   1.8144   1.8144   2.0587   2.0587
     2.2723   2.2723   2.4496   2.4496   2.9926   2.9926   3.2347   3.2347
     3.5336   3.5336   3.6872   3.6872

          k = 0.0625 0.0625 0.0000 ( 47799 PWs)   bands (ev):

    -8.4951  -8.2301  -7.8057  -7.2176  -6.4688  -5.5743  -4.5389  -3.3649
    -2.0636  -0.8252  -0.8252  -0.5765  -0.5765  -0.5689  -0.1790  -0.1790
     0.2289   0.3712   0.3712   1.0772   1.0772   1.7407   1.7407   1.9162
     1.9162   1.9889   1.9889   2.3537   2.4010   2.4010   2.8085   2.8085
     3.0574   3.0574   3.7075   3.7075

          k = 0.0625 0.1250 0.0000 ( 47788 PWs)   bands (ev):

    -8.3879  -8.1230  -7.6989  -7.1112  -6.3629  -5.4690  -4.4343  -3.2611
    -1.9607  -1.7285  -1.4763  -1.0731  -0.7251  -0.5155  -0.4765  -0.4665
    -0.0786   0.1868   0.3282   0.4863   1.0185   1.2174   1.8424   1.9698
     2.0275   2.1598   2.4521   2.4788   2.8268   2.9571   3.0916   3.1098
     3.2332   3.4607   3.7211   3.9804

          k = 0.0625 0.1875 0.0000 ( 47821 PWs)   bands (ev):

    -8.2093  -7.9448  -7.5211  -6.9341  -6.1866  -5.2936  -4.2601  -3.0882
    -2.6267  -2.3721  -1.9648  -1.7893  -1.4010  -0.6848  -0.5581  -0.3089
    -0.2963   0.0603   0.2032   0.4936   0.6360   1.1790   1.3560   1.9952
     2.1931   2.2590   2.2632   2.6138   2.7724   3.1712   3.2647   3.5943
     3.9445   4.0219   4.1249   4.2690

          k = 0.0625 0.2500 0.0000 ( 47839 PWs)   bands (ev):

    -7.9596  -7.6955  -7.2725  -6.6864  -5.9400  -5.0485  -4.0166  -3.4772
    -3.2207  -2.8465  -2.8104  -2.2421  -1.5499  -1.5188  -0.6576  -0.3242
    -0.0809  -0.0586   0.3234   0.3411   0.7251   0.8927   1.4733   1.5889
     2.2440   2.3891   2.4433   2.8308   2.8817   2.9589   3.3990   3.5015
     3.9573   4.0794   4.1233   4.3230

          k = 0.0625 0.3125 0.0000 ( 47799 PWs)   bands (ev):

    -7.6393  -7.3757  -6.9535  -6.3686  -5.6237  -4.7339  -4.2692  -4.0112
    -3.7041  -3.5984  -3.0265  -2.5364  -2.2984  -1.4295  -1.2428  -0.4278
    -0.0260   0.2269   0.2455   0.5737   0.7734   1.0223   1.1837   1.8842
     1.9545   2.5134   2.7271   2.8780   2.9874   3.2519   3.3370   3.3968
     3.4798   3.7435   3.7948   3.8017

          k = 0.0625 0.3750 0.0000 ( 47793 PWs)   bands (ev):

    -7.2487  -6.9857  -6.5645  -5.9811  -5.2380  -4.9983  -4.7391  -4.3505
    -4.3241  -3.7492  -3.3232  -3.0171  -2.1586  -2.1431  -1.1326  -0.8688
     0.0053   0.3441   0.5824   0.6141   1.0023   1.2925   1.3850   1.5478
     2.2441   2.4567   2.6171   2.7154   3.0804   3.0904   3.1117   3.2146
     3.4947   3.5174   3.6157   3.6611

          k = 0.0625 0.4375 0.0000 ( 47840 PWs)   bands (ev):

    -6.7885  -6.5262  -6.1063  -5.6622  -5.5245  -5.4019  -4.9850  -4.7837
    -4.4075  -3.8987  -3.6721  -2.8745  -2.7938  -1.7777  -1.7137  -0.6278
    -0.4291   0.6254   0.7692   1.0402   1.0533   1.4298   1.8117   1.8516
     1.9772   2.0925   2.1076   2.4870   2.6844   2.8564   3.0366   3.3800
     3.5290   3.6394   3.7219   3.8417

          k = 0.0625-0.5000 0.0000 ( 47854 PWs)   bands (ev):

    -6.2593  -6.2593  -5.9980  -5.9980  -5.5795  -5.5795  -4.9997  -4.9997
    -4.2613  -4.2613  -3.3795  -3.3795  -2.3590  -2.3590  -1.2028  -1.2028
     0.0741   0.0741   1.2341   1.2341   1.5325   1.5325   1.5944   1.5944
     1.9257   1.9257   2.2987   2.2987   2.4811   2.4811   3.1762   3.1762
     3.7676   3.7676   4.0174   4.0176

          k = 0.1250 0.1250 0.0000 ( 47769 PWs)   bands (ev):

    -8.2807  -8.0160  -7.5922  -7.0049  -6.2571  -5.3638  -4.3298  -3.1573
    -1.8578  -1.6270  -1.6270  -1.3752  -1.3752  -0.9727  -0.9727  -0.4166
    -0.4166  -0.3644   0.3040   0.3040   0.4274   1.1672   1.1672   2.1397
     2.1397   2.5474   2.9170   2.9170   3.1609   3.1609   3.2340   3.2340
     3.6572   3.6572   4.0582   4.1359

          k = 0.1250 0.1875 0.0000 ( 47760 PWs)   bands (ev):

    -8.1022  -7.8379  -7.4145  -6.8279  -6.0809  -5.1885  -4.1557  -2.9845
    -2.5241  -2.2697  -1.8632  -1.6867  -1.4580  -1.3009  -1.2064  -0.8036
    -0.5941  -0.2273  -0.1947   0.2523   0.5142   0.5927   1.2727   1.3415
     2.2819   2.4266   2.6971   3.0926   3.2631   3.4211   3.7788   3.7852
     3.9267   3.9827   4.1272   4.3154

          k = 0.1250 0.2500 0.0000 ( 47813 PWs)   bands (ev):

    -7.8528  -7.5888  -7.1661  -6.5804  -5.8345  -4.9436  -3.9123  -3.3738
    -3.1175  -2.7431  -2.7076  -2.1401  -1.4476  -1.4194  -1.2212  -0.9691
    -0.6292  -0.4887  -0.0162   0.0420   0.4741   0.7188   0.8238   1.5641
     1.5867   2.5508   2.7991   2.8095   3.2456   3.2831   3.2998   3.6359
     3.6821   3.6970   4.0130   4.2400

          k = 0.1250 0.3125 0.0000 ( 47843 PWs)   bands (ev):

    -7.5326  -7.2692  -6.8473  -6.2628  -5.5184  -4.6293  -4.1651  -3.9073
    -3.6001  -3.4948  -2.9235  -2.4333  -2.1963  -1.3304  -1.1410  -0.9171
    -0.6748  -0.3198  -0.2619   0.3182   0.3438   0.8313   1.0203   1.1205
     1.8500   2.0995   2.2744   2.5436   2.8361   2.9436   3.3150   3.4019
     3.4971   3.8154   3.9144   3.9269

          k = 0.1250 0.3750 0.0000 ( 47819 PWs)   bands (ev):

    -7.1423  -6.8795  -6.4587  -5.8756  -5.1330  -4.8937  -4.6346  -4.2461
    -4.2199  -3.6455  -3.2195  -2.9141  -2.0559  -2.0411  -1.0347  -0.7680
    -0.5493  -0.2924   0.0157   0.2243   0.6777   0.7033   1.3836   1.3934
     1.4815   1.6135   1.8559   2.2343   2.2534   2.8072   2.8133   3.2530
     3.4931   3.5712   3.6676   4.0201

          k = 0.1250 0.4375 0.0000 ( 47791 PWs)   bands (ev):

    -6.6824  -6.4204  -6.0007  -5.5571  -5.4194  -5.2968  -4.8803  -4.6790
    -4.3032  -3.7947  -3.5683  -2.7713  -2.6908  -1.6762  -1.6117  -0.5334
    -0.3308  -0.1080   0.1278   0.5622   0.7766   0.8931   1.1117   1.2283
     1.2331   1.6241   1.8091   1.9038   2.1837   2.2380   2.6438   2.8836
     2.9874   3.6579   3.7311   4.0402

          k = 0.1250-0.5000 0.0000 ( 47842 PWs)   bands (ev):

    -6.1537  -6.1537  -5.8925  -5.8925  -5.4743  -5.4743  -4.8949  -4.8949
    -4.1571  -4.1571  -3.2759  -3.2759  -2.2564  -2.2564  -1.1023  -1.1023
     0.1560   0.1560   0.3847   0.3847   0.6810   0.6810   1.0589   1.0589
     1.6097   1.6097   1.6710   1.6710   2.3253   2.3253   2.3982   2.3982
     3.1771   3.1771   4.1322   4.1322

          k = 0.1875 0.1875 0.0000 ( 47793 PWs)   bands (ev):

    -7.9240  -7.6599  -7.2370  -6.6510  -5.9049  -5.0135  -3.9818  -2.8120
    -2.3533  -2.3533  -2.0995  -2.0995  -1.6940  -1.6940  -1.5159  -1.1336
    -1.1336  -0.4052  -0.4052  -0.0260   0.4651   0.4651   0.7576   1.4492
     1.4492   2.5723   2.5723   2.7341   3.2015   3.2338   3.6499   3.7965
     3.7965   4.1928   4.2727   4.2727

          k = 0.1875 0.2500 0.0000 ( 47795 PWs)   bands (ev):

    -7.6748  -7.4112  -6.9889  -6.4039  -5.6588  -4.7689  -3.7388  -3.2015
    -2.9457  -2.5710  -2.5367  -2.1148  -1.9710  -1.8613  -1.4554  -1.2774
    -1.2599  -0.8739  -0.4042  -0.1308   0.2082   0.6191   0.7066   0.9882
     1.6452   1.8006   2.1635   2.4363   2.7678   2.8374   3.0559   3.1962
     3.3925   3.9936   4.1016   4.3647

          k = 0.1875 0.3125 0.0000 ( 47802 PWs)   bands (ev):

    -7.3551  -7.0919  -6.6705  -6.0866  -5.3431  -4.4550  -3.9917  -3.7343
    -3.4270  -3.3224  -2.7522  -2.2618  -2.0279  -1.8080  -1.5541  -1.2241
    -1.0793  -0.9720  -0.5944  -0.1241   0.1445   0.5005   0.9953   0.9970
[...]
    -0.2990   0.0738   0.2165   0.4853   0.6587   1.1788   1.3757   1.9928
     2.2028   2.2610   2.2736   2.6121   2.7844   3.1711   3.2845   3.5897
     3.9616   4.0201   4.1121   4.2669

          k = 0.0625 0.2500 0.0000 ( 47839 PWs)   bands (ev):

    -7.9601  -7.6855  -7.2555  -6.6653  -5.9217  -5.0401  -4.0170  -3.4778
    -3.2107  -2.8511  -2.7933  -2.2207  -1.5548  -1.5000  -0.6487  -0.3250
    -0.0714  -0.0679   0.3413   0.3428   0.7168   0.9141   1.4691   1.6088
     2.2440   2.3968   2.4522   2.8290   2.8802   2.9748   3.3987   3.5218
     3.9568   4.0856   4.1284   4.3282

          k = 0.0625 0.3125 0.0000 ( 47799 PWs)   bands (ev):

    -7.6398  -7.3656  -6.9365  -6.3475  -5.6053  -4.7255  -4.2697  -4.0012
    -3.7045  -3.5813  -3.0052  -2.5410  -2.2796  -1.4207  -1.2477  -0.4280
    -0.0269   0.2363   0.2373   0.5863   0.7743   1.0141   1.2058   1.9042
     1.9509   2.5128   2.7367   2.8874   2.9854   3.2683   3.3368   3.4071
     3.4729   3.7422   3.8142   3.8198

          k = 0.0625 0.3750 0.0000 ( 47793 PWs)   bands (ev):

    -7.2492  -6.9757  -6.5476  -5.9600  -5.2196  -4.9989  -4.7290  -4.3420
    -4.3071  -3.7279  -3.3236  -2.9985  -2.1631  -2.1344  -1.1327  -0.8736
     0.0010   0.3438   0.5926   0.6050   1.0196   1.2882   1.3768   1.5702
     2.2637   2.4556   2.6124   2.7257   3.0863   3.0895   3.1294   3.2248
     3.4880   3.5165   3.6323   3.6838

          k = 0.0625 0.4375 0.0000 ( 47840 PWs)   bands (ev):

    -6.7889  -6.5162  -6.0893  -5.6627  -5.5034  -5.3918  -4.9680  -4.7652
    -4.3863  -3.8902  -3.6535  -2.8748  -2.7851  -1.7779  -1.7181  -0.6321
    -0.4338   0.6219   0.7685   1.0313   1.0625   1.4473   1.8038   1.8505
     1.9996   2.0993   2.1026   2.5047   2.7046   2.8492   3.0592   3.3783
     3.5385   3.6495   3.7390   3.8430

          k = 0.0625-0.5000 0.0000 ( 47854 PWs)   bands (ev):

    -6.2598  -6.2598  -5.9879  -5.9879  -5.5625  -5.5625  -4.9785  -4.9785
    -4.2428  -4.2428  -3.3709  -3.3709  -2.3592  -2.3592  -1.2072  -1.2072
     0.0695   0.0695   1.2326   1.2326   1.5427   1.5427   1.5861   1.5861
     1.9434   1.9434   2.2916   2.2916   2.5028   2.5028   3.1965   3.1965
     3.7656   3.7656   4.0270   4.0271

          k = 0.1250 0.1250 0.0000 ( 47769 PWs)   bands (ev):

    -8.2812  -8.0060  -7.5752  -6.9838  -6.2387  -5.3554  -4.3302  -3.1619
    -1.8628  -1.6275  -1.6275  -1.3650  -1.3650  -0.9555  -0.9555  -0.3954
    -0.3954  -0.3737   0.3245   0.3245   0.4191   1.1760   1.1760   2.1394
     2.1394   2.5456   2.9152   2.9152   3.1721   3.1721   3.2347   3.2347
     3.6696   3.6696   4.0455   4.1533

          k = 0.1250 0.1875 0.0000 ( 47760 PWs)   bands (ev):

    -8.1027  -7.8278  -7.3975  -6.8068  -6.0625  -5.1802  -4.1561  -2.9892
    -2.5247  -2.2596  -1.8460  -1.6917  -1.4585  -1.2794  -1.1964  -0.7869
    -0.5760  -0.2042  -0.2039   0.2652   0.5303   0.5844   1.2721   1.3510
     2.2795   2.4247   2.6953   3.0925   3.2704   3.4179   3.7760   3.8016
     3.9262   3.9866   4.1273   4.3358

          k = 0.1250 0.2500 0.0000 ( 47813 PWs)   bands (ev):

    -7.8532  -7.5788  -7.1491  -6.5593  -5.8162  -4.9352  -3.9128  -3.3743
    -3.1075  -2.7477  -2.6905  -2.1187  -1.4525  -1.4006  -1.2218  -0.9594
    -0.6187  -0.4726   0.0061   0.0328   0.4740   0.7377   0.8156   1.5732
     1.5823   2.5510   2.7969   2.8062   3.2456   3.2933   3.2992   3.6413
     3.6816   3.7151   4.0297   4.2611

          k = 0.1250 0.3125 0.0000 ( 47843 PWs)   bands (ev):

    -7.5331  -7.2592  -6.8303  -6.2417  -5.5000  -4.6208  -4.1656  -3.8973
    -3.6005  -3.4778  -2.9021  -2.4379  -2.1776  -1.3217  -1.1459  -0.9179
    -0.6659  -0.3176  -0.2441   0.3347   0.3390   0.8267   1.0398   1.1124
     1.8574   2.0971   2.2732   2.5539   2.8361   2.9609   3.3148   3.3978
     3.5195   3.8111   3.9234   3.9247

          k = 0.1250 0.3750 0.0000 ( 47819 PWs)   bands (ev):

    -7.1428  -6.8695  -6.4417  -5.8545  -5.1146  -4.8942  -4.6245  -4.2376
    -4.2029  -3.6242  -3.2199  -2.8954  -2.0604  -2.0325  -1.0349  -0.7728
    -0.5502  -0.2819   0.0240   0.2293   0.6945   0.6993   1.3888   1.4030
     1.4736   1.6123   1.8660   2.2438   2.2709   2.8062   2.8295   3.2523
     3.5108   3.5651   3.6691   4.0186

          k = 0.1250 0.4375 0.0000 ( 47791 PWs)   bands (ev):

    -6.6829  -6.4103  -5.9838  -5.5576  -5.3982  -5.2868  -4.8633  -4.6605
    -4.2820  -3.7862  -3.5497  -2.7716  -2.6822  -1.6764  -1.6162  -0.5377
    -0.3354  -0.1082   0.1378   0.5791   0.7722   0.8910   1.1336   1.2254
     1.2384   1.6415   1.8275   1.8963   2.2054   2.2307   2.6518   2.9035
     2.9817   3.6579   3.7408   4.0395

          k = 0.1250-0.5000 0.0000 ( 47842 PWs)   bands (ev):

    -6.1542  -6.1542  -5.8825  -5.8825  -5.4573  -5.4573  -4.8737  -4.8737
    -4.1386  -4.1386  -3.2673  -3.2673  -2.2566  -2.2566  -1.1067  -1.1067
     0.1523   0.1523   0.3841   0.3841   0.6902   0.6902   1.0762   1.0762
     1.6316   1.6316   1.6621   1.6621   2.3451   2.3451   2.3908   2.3908
     3.1866   3.1866   4.1326   4.1326

          k = 0.1875 0.1875 0.0000 ( 47793 PWs)   bands (ev):

    -7.9245  -7.6499  -7.2200  -6.6300  -5.8865  -5.0051  -3.9823  -2.8166
    -2.3538  -2.3538  -2.0894  -2.0894  -1.6769  -1.6769  -1.5208  -1.1128
    -1.1128  -0.3849  -0.3849  -0.0352   0.4736   0.4736   0.7494   1.4490
     1.4490   2.5683   2.5683   2.7318   3.2016   3.2440   3.6680   3.7931
     3.7931   4.2135   4.2719   4.2719

          k = 0.1875 0.2500 0.0000 ( 47795 PWs)   bands (ev):

    -7.6753  -7.4011  -6.9719  -6.3828  -5.6404  -4.7605  -3.7392  -3.2021
    -2.9356  -2.5755  -2.5196  -2.1152  -1.9497  -1.8513  -1.4389  -1.2823
    -1.2420  -0.8510  -0.3916  -0.1148   0.1990   0.6181   0.7162   0.9800
     1.6423   1.7993   2.1622   2.4465   2.7639   2.8546   3.0515   3.1962
     3.4147   3.9911   4.1215   4.3593

          k = 0.1875 0.3125 0.0000 ( 47802 PWs)   bands (ev):

    -7.3556  -7.0819  -6.6536  -6.0655  -5.3247  -4.4465  -3.9923  -3.7242
    -3.4274  -3.3053  -2.7308  -2.2663  -2.0092  -1.8086  -1.5445  -1.2143
    -1.0627  -0.9768  -0.5723  -0.1243   0.1631   0.4916   0.9926   1.0043
     1.2751   1.4403   1.6949   1.9890   2.1011   2.2477   2.6614   3.1161
     3.3402   3.4948   3.6661   4.1950

          k = 0.1875 0.3750 0.0000 ( 47823 PWs)   bands (ev):

    -6.9657  -6.6927  -6.2654  -5.6788  -4.9398  -4.7199  -4.4505  -4.0638
    -4.0294  -3.4515  -3.0474  -2.7240  -1.8897  -1.8645  -1.4346  -1.1824
    -0.8535  -0.7565  -0.6064  -0.1712   0.2939   0.5350   0.6397   0.9699
     1.0008   1.3518   1.4053   1.5822   1.6318   1.9713   2.3388   2.6715
     3.0387   3.4236   3.5118   3.8158

          k = 0.1875 0.4375 0.0000 ( 47828 PWs)   bands (ev):

    -6.5064  -6.2341  -5.8080  -5.3824  -5.2231  -5.1120  -4.6889  -4.4863
    -4.1083  -3.6130  -3.3771  -2.5999  -2.5111  -1.5098  -1.4471  -0.9974
    -0.7272  -0.4342  -0.2254  -0.1841   0.0751   0.2591   0.3839   0.7718
     0.9256   0.9664   1.3291   1.3321   1.8118   2.0465   2.0611   2.3642
     2.8319   2.8917   3.1086   3.8420

          k = 0.1875-0.5000 0.0000 ( 47810 PWs)   bands (ev):

    -5.9783  -5.9783  -5.7069  -5.7069  -5.2822  -5.2822  -4.6993  -4.6993
    -3.9650  -3.9650  -3.0950  -3.0950  -2.0862  -2.0862  -0.9437  -0.9437
    -0.4856  -0.4856  -0.2395  -0.2395   0.2056   0.2056   0.3728   0.3728
     0.7629   0.7629   1.4572   1.4572   1.8431   1.8431   2.2816   2.2816
     2.5950   2.5950   3.3001   3.3001

          k = 0.2500 0.2500 0.0000 ( 47859 PWs)   bands (ev):

    -7.4266  -7.1528  -6.7242  -6.1360  -5.3948  -4.5162  -3.4967  -2.9614
    -2.9614  -2.6957  -2.6957  -2.3350  -2.2809  -2.2809  -1.7136  -1.7136
    -1.0449  -0.9811  -0.9811  -0.1203  -0.1203   0.4239   0.8618   0.8618
     1.2089   1.3804   1.6353   1.9902   1.9902   2.0419   2.6028   3.2447
     3.2447   3.2807   3.4337   4.1373

          k = 0.2500 0.3125 0.0000 ( 47856 PWs)   bands (ev):

    -7.1074  -6.8341  -6.4064  -5.8193  -5.0796  -4.2029  -3.7500  -3.4824
    -3.1855  -3.0646  -2.6529  -2.4921  -2.3877  -2.0267  -1.9732  -1.7807
    -1.3827  -0.9234  -0.7421  -0.6479   0.0840   0.1930   0.5113   0.8394
     0.8770   1.1166   1.2797   1.2821   1.4993   1.8491   2.2465   2.5420
     2.5502   3.3918   3.4891   3.6927

          k = 0.2500 0.3750 0.0000 ( 47843 PWs)   bands (ev):

    -6.7182  -6.4455  -6.0189  -5.4332  -4.6954  -4.4762  -4.2073  -3.8209
    -3.7869  -3.2104  -2.8063  -2.4860  -2.2762  -2.0109  -1.6834  -1.6518
    -1.5316  -1.0332  -0.5970  -0.3864  -0.2977  -0.1164   0.1928   0.5262
     0.5476   0.5819   1.1315   1.1404   1.5370   1.7885   1.8598   1.8629
     2.6692   2.7069   3.2283   3.6579

          k = 0.2500 0.4375 0.0000 ( 47865 PWs)   bands (ev):

    -6.2596  -5.9877  -5.5623  -5.1376  -4.9783  -4.8675  -4.4452  -4.2427
    -3.8656  -3.3710  -3.1360  -2.3603  -2.2737  -1.8324  -1.5793  -1.2587
    -1.2151  -1.1514  -0.7450  -0.5661  -0.4981  -0.1104  -0.0524   0.1035
     0.1443   0.5067   0.9607   1.1872   1.2014   1.5788   1.9530   2.0264
     2.3347   2.6532   3.0381   3.0510

          k = 0.2500-0.5000 0.0000 ( 47812 PWs)   bands (ev):

    -5.7325  -5.7325  -5.4614  -5.4614  -5.0374  -5.0374  -4.4555  -4.4555
    -3.7225  -3.7225  -2.8544  -2.8544  -1.8504  -1.8504  -1.3257  -1.3257
    -1.0546  -1.0546  -0.7649  -0.7649  -0.5593  -0.5593  -0.0660  -0.0660
     0.5908   0.5908   0.6437   0.6437   1.4921   1.4921   2.0346   2.0346
     2.5170   2.5170   2.7799   2.7799

          k = 0.3125 0.3125 0.0000 ( 47893 PWs)   bands (ev):

    -6.7889  -6.5161  -6.0893  -5.5033  -4.7652  -3.8903  -3.4392  -3.4392
    -3.1724  -3.1724  -2.8752  -2.7560  -2.7560  -2.1863  -2.1863  -1.7201
    -1.4510  -1.4510  -0.5895  -0.5895  -0.4539  -0.1809   0.1283   0.3976
     0.3976   0.5178   1.0644   1.0766   1.5311   1.5311   1.7966   1.7968
     2.6444   2.7926   2.7926   3.5956

          k = 0.3125 0.3750 0.0000 ( 47901 PWs)   bands (ev):

    -6.4005  -6.1284  -5.7026  -5.1181  -4.3818  -4.1636  -3.8953  -3.5093
    -3.4761  -3.0605  -2.9018  -2.7945  -2.4976  -2.3784  -2.1874  -1.7868
    -1.3511  -1.3251  -1.0539  -0.8763  -0.6289  -0.3209  -0.2049  -0.1832
    -0.0319   0.3769   0.7171   0.8845   1.0718   1.4457   1.8520   1.8973
     2.1510   2.2040   2.9244   3.1000

          k = 0.3125 0.4375 0.0000 ( 47892 PWs)   bands (ev):

    -5.9430  -5.6716  -5.2470  -4.8234  -4.6643  -4.5539  -4.1325  -3.9303
    -3.5545  -3.0609  -2.8283  -2.6140  -2.3479  -2.0553  -2.0205  -1.8704
    -1.5249  -1.3661  -1.2534  -0.9641  -0.9374  -0.7622  -0.6314  -0.2638
     0.1904   0.2168   0.3889   0.4474   1.2092   1.2974   1.4567   1.8349
     2.3247   2.3448   2.5821   2.9022

          k = 0.3125-0.5000 0.0000 ( 47848 PWs)   bands (ev):

    -5.4170  -5.4170  -5.1464  -5.1464  -4.7233  -4.7233  -4.1427  -4.1427
    -3.4116  -3.4116  -2.5475  -2.5475  -2.1006  -2.1006  -1.8468  -1.8468
    -1.5301  -1.5301  -1.4179  -1.4179  -0.8331  -0.8331  -0.3817  -0.3817
    -0.1198  -0.1198   0.6964   0.6964   0.9216   0.9216   1.6920   1.6920
     2.3907   2.3907   2.7780   2.7780

          k = 0.3750 0.3750 0.0000 ( 47894 PWs)   bands (ev):

    -6.0132  -5.7417  -5.3170  -4.7340  -3.9996  -3.7825  -3.7825  -3.5152
    -3.5152  -3.1299  -3.0976  -3.0976  -2.5261  -2.5261  -2.1236  -1.7891
    -1.7891  -1.5916  -1.3200  -1.0306  -0.9275  -0.9275  -0.8302  -0.3301
     0.0631   0.0631   0.3214   0.3816   1.2000   1.2000   1.2322   1.7682
     2.2602   2.4653   2.4653   2.5161

          k = 0.3750 0.4375 0.0000 ( 47880 PWs)   bands (ev):

    -5.5569  -5.2862  -4.8627  -4.4404  -4.2815  -4.1716  -3.7517  -3.5497
    -3.3339  -3.1761  -3.0673  -2.6847  -2.6503  -2.4597  -2.2354  -2.0581
    -1.9811  -1.6661  -1.5940  -1.5518  -1.3268  -0.9675  -0.5925  -0.5177
    -0.4721  -0.2527   0.4489   0.5634   0.6191   0.7883   1.5607   1.5870
     1.8879   2.2586   2.6473   2.8380

          k = 0.3750-0.5000 0.0000 ( 47954 PWs)   bands (ev):

    -5.0323  -5.0323  -4.7625  -4.7625  -4.3405  -4.3405  -3.7616  -3.7616
    -3.0342  -3.0342  -2.8178  -2.8178  -2.5513  -2.5513  -2.2233  -2.2233
    -2.0748  -2.0748  -1.5670  -1.5670  -1.1426  -1.1426  -0.8331  -0.8331
    -0.0119  -0.0119   0.0169   0.0169   1.0111   1.0111   1.2566   1.2566
     2.1485   2.1485   2.7046   2.7046

          k = 0.4375 0.4375 0.0000 ( 47946 PWs)   bands (ev):

    -5.1021  -4.8321  -4.4099  -3.9893  -3.9893  -3.8308  -3.7215  -3.7215
    -3.3033  -3.3033  -3.1030  -2.8859  -2.7308  -2.7308  -2.6192  -2.2910
    -2.1432  -1.9928  -1.9928  -1.6341  -1.2112  -1.1312  -1.1312  -0.9005
    -0.1385  -0.1385  -0.0794  -0.0499   0.9448   1.0002   1.0002   1.1898
     2.0829   2.2677   2.2677   2.6384

          k = 0.4375-0.5000 0.0000 ( 47970 PWs)   bands (ev):

    -4.5792  -4.5792  -4.3101  -4.3101  -3.8897  -3.8897  -3.4710  -3.4710
    -3.3136  -3.3136  -3.2041  -3.2041  -2.7866  -2.7866  -2.5961  -2.5961
    -2.1942  -2.1942  -1.7288  -1.7288  -1.4637  -1.4637  -0.7288  -0.7288
    -0.6061  -0.6061   0.3142   0.3142   0.4859   0.4859   1.4539   1.4539
     1.7558   1.7558   2.7064   2.7064

          k =-0.5000-0.5000 0.0000 ( 47904 PWs)   bands (ev):

    -4.0583  -4.0583  -4.0583  -4.0583  -3.7904  -3.7904  -3.7904  -3.7904
    -3.3720  -3.3720  -3.3720  -3.3720  -2.7991  -2.7991  -2.7991  -2.7991
    -2.0609  -2.0609  -2.0609  -2.0609  -1.1993  -1.1993  -1.1993  -1.1993
    -0.2059  -0.2059  -0.2059  -0.2059   0.9335   0.9335   0.9335   0.9335
     2.2016   2.2016   2.2016   2.2016

     the Fermi energy is     2.6043 ev

!    total energy              =    -249.19001163 Ry
     Harris-Foulkes estimate   =    -249.19001163 Ry
     estimated scf accuracy    <          2.0E-09 Ry

     The total energy is the sum of the following terms:

     one-electron contribution =   -1701.09798375 Ry
     hartree contribution      =     868.61044387 Ry
     xc contribution           =    -200.26621097 Ry
     ewald contribution        =     783.56432865 Ry
     smearing contrib. (-TS)   =      -0.00058943 Ry

     convergence has been achieved in  17 iterations

     negative rho (up, down):  6.196E-06 0.000E+00

     Forces acting on atoms (cartesian axes, Ry/au):

     atom    1 type  1   force =     0.00000000    0.00000000   -0.00060499
     atom    2 type  1   force =     0.00000000    0.00000000   -0.00060504
     atom    3 type  1   force =     0.00000000    0.00000000   -0.00063558
     atom    4 type  1   force =     0.00000000    0.00000000   -0.00063558
     atom    5 type  1   force =     0.00000000    0.00000000    0.00095426
     atom    6 type  1   force =     0.00000000    0.00000000    0.00095425
     atom    7 type  1   force =     0.00000000    0.00000000    0.00052944
     atom    8 type  1   force =     0.00000000    0.00000000    0.00052944
     atom    9 type  1   force =     0.00000000    0.00000000    0.00023889
     atom   10 type  1   force =     0.00000000    0.00000000    0.00023890
     atom   11 type  1   force =     0.00000000    0.00000000   -0.00023902
     atom   12 type  1   force =     0.00000000    0.00000000   -0.00023902
     atom   13 type  1   force =     0.00000000    0.00000000   -0.00052924
     atom   14 type  1   force =     0.00000000    0.00000000   -0.00052927
     atom   15 type  1   force =     0.00000000    0.00000000   -0.00095421
     atom   16 type  1   force =     0.00000000    0.00000000   -0.00095421
     atom   17 type  1   force =     0.00000000    0.00000000    0.00063543
     atom   18 type  1   force =     0.00000000    0.00000000    0.00063550
     atom   19 type  1   force =     0.00000000    0.00000000    0.00060501
     atom   20 type  1   force =     0.00000000    0.00000000    0.00060501

     Total force =     0.002841     Total SCF correction =     0.000086


     Computing stress (Cartesian axis) and pressure


     negative rho (up, down):  6.196E-06 0.000E+00
          total   stress  (Ry/bohr**3)                   (kbar)     P=   -5.37
  -0.00005778   0.00000000   0.00000000         -8.50      0.00      0.00
   0.00000000  -0.00005778   0.00000000          0.00     -8.50      0.00
   0.00000000   0.00000000   0.00000604          0.00      0.00      0.89


     bfgs converged in   6 scf cycles and   5 bfgs steps
     (criteria: energy <  1.0E-04 Ry, force <  1.0E-03 Ry/Bohr)

     End of BFGS Geometry Optimization

     Final energy   =    -249.1900116297 Ry
Begin final coordinates

ATOMIC_POSITIONS (crystal)
Al       0.000000000   0.000000000  -0.000466330
Al       0.500000000   0.500000000  -0.000466317
Al       0.500000000   0.000000000   0.055805949
Al       0.000000000   0.500000000   0.055805949
Al       0.000000000   0.000000000   0.111287570
Al       0.500000000   0.500000000   0.111287572
Al       0.500000000   0.000000000   0.166820658
Al       0.000000000   0.500000000   0.166820658
Al       0.000000000   0.000000000   0.222274203
Al       0.500000000   0.500000000   0.222274201
Al       0.500000000   0.000000000   0.277725803
Al       0.000000000   0.500000000   0.277725803
Al       0.000000000   0.000000000   0.333179311
Al       0.500000000   0.500000000   0.333179316
Al       0.500000000   0.000000000   0.388712417
Al       0.000000000   0.500000000   0.388712417
Al       0.000000000   0.000000000   0.444194075
Al       0.500000000   0.500000000   0.444194063
Al       0.500000000   0.000000000   0.500466341
Al       0.000000000   0.500000000   0.500466341
End final coordinates



     Writing output data file Al_100_5_4.save/
 
     init_run     :     52.29s CPU     53.16s WALL (       1 calls)
     electrons    :   4749.37s CPU   4791.64s WALL (       6 calls)
     update_pot   :      1.13s CPU      1.19s WALL (       5 calls)
     forces       :     72.70s CPU     73.51s WALL (       6 calls)
     stress       :    421.33s CPU    423.32s WALL (       6 calls)

     Called by init_run:
     wfcinit      :     51.62s CPU     52.42s WALL (       1 calls)
     potinit      :      0.14s CPU      0.16s WALL (       1 calls)
     hinit0       :      0.42s CPU      0.44s WALL (       1 calls)

     Called by electrons:
     c_bands      :   3967.81s CPU   3993.13s WALL (      77 calls)
     sum_band     :    611.69s CPU    622.61s WALL (      77 calls)
     v_of_rho     :      9.44s CPU     10.27s WALL (      81 calls)
     newd         :      4.25s CPU      6.91s WALL (      81 calls)
     mix_rho      :    156.90s CPU    159.21s WALL (      77 calls)

     Called by c_bands:
     init_us_2    :    137.61s CPU    138.04s WALL (    7515 calls)
     cegterg      :   3679.65s CPU   3698.12s WALL (    3465 calls)

     Called by sum_band:
     sum_band:bec :      0.12s CPU      0.12s WALL (    3465 calls)
     addusdens    :      4.03s CPU      6.73s WALL (      77 calls)

     Called by *egterg:
     h_psi        :   2366.60s CPU   2372.72s WALL (   10339 calls)
     s_psi        :    341.57s CPU    341.94s WALL (   10339 calls)
     g_psi        :     64.41s CPU     64.50s WALL (    6829 calls)
     cdiaghg      :     20.67s CPU     24.64s WALL (    9979 calls)

     Called by h_psi:
     h_psi:pot    :   2327.02s CPU   2330.91s WALL (   10339 calls)
     h_psi:calbec :    279.26s CPU    280.03s WALL (   10339 calls)
     vloc_psi     :   1705.99s CPU   1708.73s WALL (   10339 calls)
     add_vuspsi   :    341.63s CPU    342.07s WALL (   10339 calls)

     General routines
     calbec       :    447.94s CPU    449.00s WALL (   15154 calls)
     fft          :      2.74s CPU      2.75s WALL (    1048 calls)
     ffts         :     58.07s CPU     58.15s WALL (   22142 calls)
     fftw         :   1763.16s CPU   1765.63s WALL (  676068 calls)
 
     Parallel routines
 
     PWSCF        :      1h28m CPU      1h29m WALL

 
   This run was terminated on:  18:33:48  30May2020            

=------------------------------------------------------------------------------=
   JOB DONE.
=------------------------------------------------------------------------------=
