
     Program PWSCF v.6.4.1 starts on  6Jun2020 at 22:25:30 

     This program is part of the open-source Quantum ESPRESSO suite
     for quantum simulation of materials; please cite
         "P. Giannozzi et al., J. Phys.:Condens. Matter 21 395502 (2009);
         "P. Giannozzi et al., J. Phys.:Condens. Matter 29 465901 (2017);
          URL http://www.quantum-espresso.org", 
     in publications or presentations arising from this work. More details at
     http://www.quantum-espresso.org/quote

     Parallel version (MPI & OpenMP), running on       1 processor cores
     Number of MPI processes:                 1
     Threads/MPI process:                     1

     MPI processes distributed on     1 nodes
     Reading input from Al_111_H4_hole_A_site_2.pw.in

     Current dimensions of program PWSCF are:
     Max number of different atomic species (ntypx) = 10
     Max number of k-points (npk) =  40000
     Max angular momentum in pseudopotentials (lmaxx) =  3
               file H.pbe-rrkjus.UPF: wavefunction(s)  1S renormalized

     Subspace diagonalization in iterative solution of the eigenvalue problem:
     a serial algorithm will be used

 
     G-vector sticks info
     --------------------
     sticks:   dense  smooth     PW     G-vecs:    dense   smooth      PW
     Sum        2713    2161    583              1657165  1184975  169819
 


     bravais-lattice index     =            4
     lattice parameter (alat)  =      16.1280  a.u.
     unit-cell volume          =   53394.8108 (a.u.)^3
     number of atoms/cell      =           82
     number of atomic types    =            2
     number of electrons       =       244.00
     number of Kohn-Sham states=          146
     kinetic-energy cutoff     =      30.0000  Ry
     charge density cutoff     =     150.0000  Ry
     convergence threshold     =      8.1E-05
     mixing beta               =       0.3000
     number of iterations used =            8  local-TF  mixing
     Exchange-correlation      =  SLA  PW   PBE  PBE ( 1  4  3  4 0 0)
     nstep                     =           50


     celldm(1)=  16.128000  celldm(2)=   0.000000  celldm(3)=  14.696938
     celldm(4)=   0.000000  celldm(5)=   0.000000  celldm(6)=   0.000000

     crystal axes: (cart. coord. in units of alat)
               a(1) = (   1.000000   0.000000   0.000000 )  
               a(2) = (  -0.500000   0.866025   0.000000 )  
               a(3) = (   0.000000   0.000000  14.696938 )  

     reciprocal axes: (cart. coord. in units 2 pi/alat)
               b(1) = (  1.000000  0.577350  0.000000 )  
               b(2) = (  0.000000  1.154701  0.000000 )  
               b(3) = (  0.000000  0.000000  0.068041 )  


     PseudoPot. # 1 for Al read from file:
     ./Al.pbe-n-van.UPF
     MD5 check sum: b11ded24487aef5bc42d5c7a2e22a7b6
     Pseudo is Ultrasoft + core correction, Zval =  3.0
     Generated by new atomic code, or converted to UPF format
     Using radial grid of  893 points,  2 beta functions with: 
                l(1) =   0
                l(2) =   1
     Q(r) pseudized with  8 coefficients,  rinner =    0.900   0.900   0.900


     PseudoPot. # 2 for H  read from file:
     ./H.pbe-rrkjus.UPF
     MD5 check sum: 0433647300470310da31d564c103eed6
     Pseudo is Ultrasoft, Zval =  1.0
     Generated by new atomic code, or converted to UPF format
     Using radial grid of 1061 points,  2 beta functions with: 
                l(1) =   0
                l(2) =   0
     Q(r) pseudized with 0 coefficients 


     atomic species   valence    mass     pseudopotential
        Al             3.00    26.98000     Al( 1.00)
        H              1.00     1.00790     H ( 1.00)

      6 Sym. Ops. (no inversion) found



   Cartesian axes

     site n.     atom                  positions (alat units)
         1           Al  tau(   1) = (   0.1666668   0.0962249   0.8164957  )
         2           Al  tau(   2) = (   0.0000002   0.3849001   0.8164957  )
         3           Al  tau(   3) = (  -0.1666665   0.6735752   0.8164957  )
         4           Al  tau(   4) = (   0.5000001   0.0962249   0.8164957  )
         5           Al  tau(   5) = (   0.3333335   0.3849001   0.8164957  )
         6           Al  tau(   6) = (   0.1666668   0.6735752   0.8164957  )
         7           Al  tau(   7) = (   0.8333335   0.0962249   0.8164957  )
         8           Al  tau(   8) = (   0.6666669   0.3849001   0.8164957  )
         9           Al  tau(   9) = (   0.5000002   0.6735752   0.8164957  )
        10           Al  tau(  10) = (   0.0000000   0.0000000   0.0000000  )
        11           Al  tau(  11) = (  -0.1666667   0.2886751   0.0000000  )
        12           Al  tau(  12) = (  -0.3333333   0.5773503   0.0000000  )
        13           Al  tau(  13) = (   0.3333333   0.0000000   0.0000000  )
        14           Al  tau(  14) = (   0.1666667   0.2886751   0.0000000  )
        15           Al  tau(  15) = (  -0.0000000   0.5773503   0.0000000  )
        16           Al  tau(  16) = (   0.6666667   0.0000000   0.0000000  )
        17           Al  tau(  17) = (   0.5000000   0.2886751   0.0000000  )
        18           Al  tau(  18) = (   0.3333333   0.5773503   0.0000000  )
        19           Al  tau(  19) = (  -0.0000002   0.1924502   1.6329939  )
        20           Al  tau(  20) = (  -0.1666668   0.4811253   1.6329939  )
        21           Al  tau(  21) = (  -0.3333335   0.7698005   1.6329939  )
        22           Al  tau(  22) = (   0.3333332   0.1924502   1.6329939  )
        23           Al  tau(  23) = (   0.1666665   0.4811253   1.6329939  )
        24           Al  tau(  24) = (  -0.0000002   0.7698005   1.6329939  )
        25           Al  tau(  25) = (   0.6666665   0.1924502   1.6329939  )
        26           Al  tau(  26) = (   0.4999999   0.4811253   1.6329939  )
        27           Al  tau(  27) = (   0.3333332   0.7698005   1.6329939  )
        28           Al  tau(  28) = (   0.1666668   0.0962249   3.2659855  )
        29           Al  tau(  29) = (   0.0000002   0.3849001   3.2659855  )
        30           Al  tau(  30) = (  -0.1666665   0.6735752   3.2659855  )
        31           Al  tau(  31) = (   0.5000001   0.0962249   3.2659855  )
        32           Al  tau(  32) = (   0.3333335   0.3849001   3.2659855  )
        33           Al  tau(  33) = (   0.1666668   0.6735752   3.2659855  )
        34           Al  tau(  34) = (   0.8333335   0.0962249   3.2659855  )
        35           Al  tau(  35) = (   0.6666669   0.3849001   3.2659855  )
        36           Al  tau(  36) = (   0.5000002   0.6735752   3.2659855  )
        37           Al  tau(  37) = (   0.0000000   0.0000000   2.4494897  )
        38           Al  tau(  38) = (  -0.1666667   0.2886751   2.4494897  )
        39           Al  tau(  39) = (  -0.3333333   0.5773503   2.4494897  )
        40           Al  tau(  40) = (   0.3333333   0.0000000   2.4494897  )
        41           Al  tau(  41) = (   0.1666667   0.2886751   2.4494897  )
        42           Al  tau(  42) = (  -0.0000000   0.5773503   2.4494897  )
        43           Al  tau(  43) = (   0.6666667   0.0000000   2.4494897  )
        44           Al  tau(  44) = (   0.5000000   0.2886751   2.4494897  )
        45           Al  tau(  45) = (   0.3333333   0.5773503   2.4494897  )
        46           Al  tau(  46) = (  -0.0000002   0.1924502   4.0824837  )
        47           Al  tau(  47) = (  -0.1666668   0.4811253   4.0824837  )
        48           Al  tau(  48) = (  -0.3333335   0.7698005   4.0824837  )
        49           Al  tau(  49) = (   0.3333332   0.1924502   4.0824837  )
        50           Al  tau(  50) = (   0.1666665   0.4811253   4.0824837  )
        51           Al  tau(  51) = (  -0.0000002   0.7698005   4.0824837  )
        52           Al  tau(  52) = (   0.6666665   0.1924502   4.0824837  )
        53           Al  tau(  53) = (   0.4999999   0.4811253   4.0824837  )
        54           Al  tau(  54) = (   0.3333332   0.7698005   4.0824837  )
        55           Al  tau(  55) = (   0.1666668   0.0962249   5.7154752  )
        56           Al  tau(  56) = (   0.0000002   0.3849001   5.7154752  )
        57           Al  tau(  57) = (  -0.1666665   0.6735752   5.7154752  )
        58           Al  tau(  58) = (   0.5000001   0.0962249   5.7154752  )
        59           Al  tau(  59) = (   0.3333335   0.3849001   5.7154752  )
        60           Al  tau(  60) = (   0.1666668   0.6735752   5.7154752  )
        61           Al  tau(  61) = (   0.8333335   0.0962249   5.7154752  )
        62           Al  tau(  62) = (   0.6666669   0.3849001   5.7154752  )
        63           Al  tau(  63) = (   0.5000002   0.6735752   5.7154752  )
        64           Al  tau(  64) = (   0.0000000   0.0000000   4.8989795  )
        65           Al  tau(  65) = (  -0.1666667   0.2886751   4.8989795  )
        66           Al  tau(  66) = (  -0.3333333   0.5773503   4.8989795  )
        67           Al  tau(  67) = (   0.3333333   0.0000000   4.8989795  )
        68           Al  tau(  68) = (   0.1666667   0.2886751   4.8989795  )
        69           Al  tau(  69) = (  -0.0000000   0.5773503   4.8989795  )
        70           Al  tau(  70) = (   0.6666667   0.0000000   4.8989795  )
        71           Al  tau(  71) = (   0.5000000   0.2886751   4.8989795  )
        72           Al  tau(  72) = (   0.3333333   0.5773503   4.8989795  )
        73           Al  tau(  73) = (  -0.0000002   0.1924502   6.5319734  )
        74           Al  tau(  74) = (  -0.1666668   0.4811253   6.5319734  )
        75           Al  tau(  75) = (  -0.3333335   0.7698005   6.5319734  )
        76           Al  tau(  76) = (   0.3333332   0.1924502   6.5319734  )
        77           Al  tau(  77) = (   0.1666665   0.4811253   6.5319734  )
        78           Al  tau(  78) = (  -0.0000002   0.7698005   6.5319734  )
        79           Al  tau(  79) = (   0.6666665   0.1924502   6.5319734  )
        80           Al  tau(  80) = (   0.4999999   0.4811253   6.5319734  )
        81           Al  tau(  81) = (   0.3333332   0.7698005   6.5319734  )
        82           H   tau(  82) = (   0.0000000   0.0000000   5.3072271  )

     number of k points=    44  Marzari-Vanderbilt smearing, width (Ry)=  0.0250
                       cart. coord. in units 2pi/alat
        k(    1) = (   0.0000000   0.0000000   0.0000000), wk =   0.0050000
        k(    2) = (   0.0000000   0.0577350   0.0000000), wk =   0.0300000
        k(    3) = (   0.0000000   0.1154701   0.0000000), wk =   0.0300000
        k(    4) = (   0.0000000   0.1732051   0.0000000), wk =   0.0300000
        k(    5) = (   0.0000000   0.2309401   0.0000000), wk =   0.0300000
        k(    6) = (   0.0000000   0.2886751   0.0000000), wk =   0.0300000
        k(    7) = (   0.0000000   0.3464102   0.0000000), wk =   0.0300000
        k(    8) = (   0.0000000   0.4041452   0.0000000), wk =   0.0300000
        k(    9) = (   0.0000000   0.4618802   0.0000000), wk =   0.0300000
        k(   10) = (   0.0000000   0.5196152   0.0000000), wk =   0.0300000
        k(   11) = (   0.0000000  -0.5773503   0.0000000), wk =   0.0150000
        k(   12) = (   0.0500000   0.0866025   0.0000000), wk =   0.0300000
        k(   13) = (   0.0500000   0.1443376   0.0000000), wk =   0.0600000
        k(   14) = (   0.0500000   0.2020726   0.0000000), wk =   0.0600000
        k(   15) = (   0.0500000   0.2598076   0.0000000), wk =   0.0600000
        k(   16) = (   0.0500000   0.3175426   0.0000000), wk =   0.0600000
        k(   17) = (   0.0500000   0.3752777   0.0000000), wk =   0.0600000
        k(   18) = (   0.0500000   0.4330127   0.0000000), wk =   0.0600000
        k(   19) = (   0.0500000   0.4907477   0.0000000), wk =   0.0600000
        k(   20) = (   0.0500000   0.5484828   0.0000000), wk =   0.0600000
        k(   21) = (   0.1000000   0.1732051   0.0000000), wk =   0.0300000
        k(   22) = (   0.1000000   0.2309401   0.0000000), wk =   0.0600000
        k(   23) = (   0.1000000   0.2886751   0.0000000), wk =   0.0600000
        k(   24) = (   0.1000000   0.3464102   0.0000000), wk =   0.0600000
        k(   25) = (   0.1000000   0.4041452   0.0000000), wk =   0.0600000
        k(   26) = (   0.1000000   0.4618802   0.0000000), wk =   0.0600000
        k(   27) = (   0.1000000   0.5196152   0.0000000), wk =   0.0600000
        k(   28) = (   0.1000000   0.5773503   0.0000000), wk =   0.0300000
        k(   29) = (   0.1500000   0.2598076   0.0000000), wk =   0.0300000
        k(   30) = (   0.1500000   0.3175426   0.0000000), wk =   0.0600000
        k(   31) = (   0.1500000   0.3752777   0.0000000), wk =   0.0600000
        k(   32) = (   0.1500000   0.4330127   0.0000000), wk =   0.0600000
        k(   33) = (   0.1500000   0.4907477   0.0000000), wk =   0.0600000
        k(   34) = (   0.1500000   0.5484828   0.0000000), wk =   0.0600000
        k(   35) = (   0.2000000   0.3464102   0.0000000), wk =   0.0300000
        k(   36) = (   0.2000000   0.4041452   0.0000000), wk =   0.0600000
        k(   37) = (   0.2000000   0.4618802   0.0000000), wk =   0.0600000
        k(   38) = (   0.2000000   0.5196152   0.0000000), wk =   0.0600000
        k(   39) = (   0.2000000   0.5773503   0.0000000), wk =   0.0300000
        k(   40) = (   0.2500000   0.4330127   0.0000000), wk =   0.0300000
        k(   41) = (   0.2500000   0.4907477   0.0000000), wk =   0.0600000
        k(   42) = (   0.2500000   0.5484828   0.0000000), wk =   0.0600000
        k(   43) = (   0.3000000   0.5196152   0.0000000), wk =   0.0300000
        k(   44) = (   0.3000000   0.5773503   0.0000000), wk =   0.0300000

     Dense  grid:  1657165 G-vectors     FFT dimensions: (  64,  64, 960)

     Smooth grid:  1184975 G-vectors     FFT dimensions: (  60,  60, 864)

     Estimated max dynamical RAM per process >      22.66 GB

     Initial potential from superposition of free atoms

     starting charge  243.70410, renormalised to  244.00000

     negative rho (up, down):  4.988E-04 0.000E+00
     Starting wfcs are  325 randomized atomic wfcs

     total cpu time spent up to now is     2375.5 secs

     Self-consistent Calculation

     iteration #  1     ecut=    30.00 Ry     beta= 0.30
     Davidson diagonalization with overlap
     ethr =  1.00E-02,  avg # of iterations =  3.0

     negative rho (up, down):  6.620E-04 0.000E+00

     total cpu time spent up to now is     6361.5 secs

     total energy              =   -1007.71115350 Ry
     Harris-Foulkes estimate   =   -1009.96248267 Ry
     estimated scf accuracy    <    1648.69606839 Ry

     iteration #  2     ecut=    30.00 Ry     beta= 0.30
     Davidson diagonalization with overlap
     ethr =  1.00E-02,  avg # of iterations =  1.0

     negative rho (up, down):  6.245E-02 0.000E+00

     total cpu time spent up to now is     9017.1 secs

     total energy              =   -1004.52665868 Ry
     Harris-Foulkes estimate   =   -1008.05779837 Ry
     estimated scf accuracy    <     788.19897498 Ry

     iteration #  3     ecut=    30.00 Ry     beta= 0.30
     Davidson diagonalization with overlap
     ethr =  1.00E-02,  avg # of iterations =  1.4

     negative rho (up, down):  6.263E-02 0.000E+00

     total cpu time spent up to now is    11742.8 secs

     total energy              =   -1006.02030452 Ry
     Harris-Foulkes estimate   =   -1006.01391397 Ry
     estimated scf accuracy    <      25.11328879 Ry

     iteration #  4     ecut=    30.00 Ry     beta= 0.30
     Davidson diagonalization with overlap
     ethr =  1.00E-02,  avg # of iterations =  1.0

     negative rho (up, down):  6.771E-02 0.000E+00

     total cpu time spent up to now is    14379.4 secs

     total energy              =   -1006.07596452 Ry
     Harris-Foulkes estimate   =   -1006.02719526 Ry
     estimated scf accuracy    <      24.90869266 Ry

     iteration #  5     ecut=    30.00 Ry     beta= 0.30
     Davidson diagonalization with overlap
     ethr =  1.00E-02,  avg # of iterations =  1.0

     negative rho (up, down):  7.030E-02 0.000E+00

     total cpu time spent up to now is    17026.3 secs

     total energy              =   -1006.18521117 Ry
     Harris-Foulkes estimate   =   -1006.08901881 Ry
     estimated scf accuracy    <      23.62136789 Ry

     iteration #  6     ecut=    30.00 Ry     beta= 0.30
     Davidson diagonalization with overlap
     ethr =  9.68E-03,  avg # of iterations =  1.0

     negative rho (up, down):  1.317E-01 0.000E+00

     total cpu time spent up to now is    19659.7 secs

     total energy              =   -1005.74928408 Ry
     Harris-Foulkes estimate   =   -1006.19636950 Ry
     estimated scf accuracy    <      32.08608491 Ry

     iteration #  7     ecut=    30.00 Ry     beta= 0.30
     Davidson diagonalization with overlap
     ethr =  9.68E-03,  avg # of iterations =  1.2

     negative rho (up, down):  1.212E-01 0.000E+00

     total cpu time spent up to now is    22304.5 secs

     total energy              =   -1005.76352969 Ry
     Harris-Foulkes estimate   =   -1005.87985157 Ry
     estimated scf accuracy    <      27.49568728 Ry

     iteration #  8     ecut=    30.00 Ry     beta= 0.30
     Davidson diagonalization with overlap
     ethr =  9.68E-03,  avg # of iterations =  1.5

     negative rho (up, down):  3.292E-01 0.000E+00

     total cpu time spent up to now is    24967.6 secs

     total energy              =   -1005.54259668 Ry
     Harris-Foulkes estimate   =   -1005.82232773 Ry
     estimated scf accuracy    <      17.81763987 Ry

     iteration #  9     ecut=    30.00 Ry     beta= 0.30
     Davidson diagonalization with overlap
     ethr =  7.30E-03,  avg # of iterations =  2.6

     negative rho (up, down):  2.302E-01 0.000E+00

     total cpu time spent up to now is    27702.1 secs

     total energy              =   -1005.81420338 Ry
     Harris-Foulkes estimate   =   -1005.87018122 Ry
     estimated scf accuracy    <       5.18112858 Ry

     iteration # 10     ecut=    30.00 Ry     beta= 0.30
     Davidson diagonalization with overlap
     c_bands:  5 eigenvalues not converged
     c_bands:  5 eigenvalues not converged
     c_bands:  4 eigenvalues not converged
     c_bands:  2 eigenvalues not converged
     c_bands:  3 eigenvalues not converged
     c_bands:  1 eigenvalues not converged
     ethr =  2.12E-03,  avg # of iterations =  9.8

     negative rho (up, down):  2.531E-01 0.000E+00

     total cpu time spent up to now is    31921.1 secs

     total energy              =   -1007.98261602 Ry
     Harris-Foulkes estimate   =   -1008.13346482 Ry
     estimated scf accuracy    <     456.66864259 Ry

     iteration # 11     ecut=    30.00 Ry     beta= 0.30
     Davidson diagonalization with overlap
     c_bands:  2 eigenvalues not converged
     ethr =  2.12E-03,  avg # of iterations =  3.5

     negative rho (up, down):  1.771E-01 0.000E+00

     total cpu time spent up to now is    34754.3 secs

     total energy              =   -1007.82520466 Ry
     Harris-Foulkes estimate   =   -1008.14840447 Ry
     estimated scf accuracy    <     545.30658715 Ry

     iteration # 12     ecut=    30.00 Ry     beta= 0.30
     Davidson diagonalization with overlap
     ethr =  2.12E-03,  avg # of iterations =  1.9

     negative rho (up, down):  4.019E-02 0.000E+00

     total cpu time spent up to now is    37430.5 secs

     total energy              =   -1007.38007331 Ry
     Harris-Foulkes estimate   =   -1007.85265192 Ry
     estimated scf accuracy    <     526.88802535 Ry

     iteration # 13     ecut=    30.00 Ry     beta= 0.30
     Davidson diagonalization with overlap
     ethr =  2.12E-03,  avg # of iterations =  2.9

     negative rho (up, down):  6.164E-02 0.000E+00

     total cpu time spent up to now is    40242.2 secs

     total energy              =   -1008.19840350 Ry
     Harris-Foulkes estimate   =   -1007.49721315 Ry
     estimated scf accuracy    <     463.89404480 Ry

     iteration # 14     ecut=    30.00 Ry     beta= 0.30
     Davidson diagonalization with overlap
     ethr =  2.12E-03,  avg # of iterations =  3.0

     negative rho (up, down):  6.530E-02 0.000E+00

     total cpu time spent up to now is    43029.9 secs

     total energy              =   -1008.92840206 Ry
     Harris-Foulkes estimate   =   -1008.39555540 Ry
     estimated scf accuracy    <     710.16559864 Ry

     iteration # 15     ecut=    30.00 Ry     beta= 0.30
     Davidson diagonalization with overlap
     c_bands:  5 eigenvalues not converged
     ethr =  2.12E-03,  avg # of iterations =  3.6

     negative rho (up, down):  1.175E-01 0.000E+00

     total cpu time spent up to now is    45937.0 secs

     total energy              =   -1007.15799491 Ry
     Harris-Foulkes estimate   =   -1009.07173288 Ry
     estimated scf accuracy    <     933.91170232 Ry

     iteration # 16     ecut=    30.00 Ry     beta= 0.30
     Davidson diagonalization with overlap
     ethr =  2.12E-03,  avg # of iterations =  2.3

     negative rho (up, down):  7.303E-02 0.000E+00

     total cpu time spent up to now is    48635.7 secs

     total energy              =   -1008.57381549 Ry
     Harris-Foulkes estimate   =   -1007.44711790 Ry
     estimated scf accuracy    <     568.57001262 Ry

     iteration # 17     ecut=    30.00 Ry     beta= 0.30
     Davidson diagonalization with overlap
     c_bands:  3 eigenvalues not converged
     c_bands:  2 eigenvalues not converged
     ethr =  2.12E-03,  avg # of iterations =  5.4

     negative rho (up, down):  7.556E-02 0.000E+00

     total cpu time spent up to now is    51618.5 secs

     total energy              =   -1009.73530629 Ry
     Harris-Foulkes estimate   =   -1009.19320076 Ry
     estimated scf accuracy    <    1108.61010125 Ry

     iteration # 18     ecut=    30.00 Ry     beta= 0.30
     Davidson diagonalization with overlap
     ethr =  2.12E-03,  avg # of iterations =  4.3

     negative rho (up, down):  3.078E-02 0.000E+00

     total cpu time spent up to now is    54480.2 secs

     total energy              =   -1002.54911347 Ry
     Harris-Foulkes estimate   =   -1009.85903322 Ry
     estimated scf accuracy    <    1358.26206052 Ry

     iteration # 19     ecut=    30.00 Ry     beta= 0.30
     Davidson diagonalization with overlap
     ethr =  2.12E-03,  avg # of iterations =  3.3

     negative rho (up, down):  2.189E-02 0.000E+00

     total cpu time spent up to now is    57257.3 secs

     total energy              =   -1005.93704825 Ry
     Harris-Foulkes estimate   =   -1005.96779618 Ry
     estimated scf accuracy    <       1.90361592 Ry

     iteration # 20     ecut=    30.00 Ry     beta= 0.30
     Davidson diagonalization with overlap
     c_bands:  1 eigenvalues not converged
     ethr =  7.80E-04,  avg # of iterations =  6.0

     negative rho (up, down):  9.296E-03 0.000E+00

     total cpu time spent up to now is    60289.8 secs

     total energy              =   -1005.95858612 Ry
     Harris-Foulkes estimate   =   -1005.97576392 Ry
     estimated scf accuracy    <       1.76786045 Ry

     iteration # 21     ecut=    30.00 Ry     beta= 0.30
     Davidson diagonalization with overlap
     ethr =  7.25E-04,  avg # of iterations =  1.7

     negative rho (up, down):  3.699E-03 0.000E+00

     total cpu time spent up to now is    63023.5 secs

     total energy              =   -1005.96341342 Ry
     Harris-Foulkes estimate   =   -1005.96587573 Ry
     estimated scf accuracy    <       0.62606335 Ry

     iteration # 22     ecut=    30.00 Ry     beta= 0.30
     Davidson diagonalization with overlap
     c_bands:  5 eigenvalues not converged
     c_bands:  1 eigenvalues not converged
     ethr =  2.57E-04,  avg # of iterations =  4.9

     negative rho (up, down):  4.294E-03 0.000E+00

     total cpu time spent up to now is    66004.9 secs

     total energy              =   -1005.97071001 Ry
     Harris-Foulkes estimate   =   -1005.97231875 Ry
     estimated scf accuracy    <       0.42010863 Ry

     iteration # 23     ecut=    30.00 Ry     beta= 0.30
     Davidson diagonalization with overlap
     c_bands:  5 eigenvalues not converged
     ethr =  1.72E-04,  avg # of iterations =  3.8

     negative rho (up, down):  3.731E-03 0.000E+00

     total cpu time spent up to now is    68878.5 secs

     total energy              =   -1005.97545886 Ry
     Harris-Foulkes estimate   =   -1005.97874863 Ry
     estimated scf accuracy    <       0.81282649 Ry

     iteration # 24     ecut=    30.00 Ry     beta= 0.30
     Davidson diagonalization with overlap
     ethr =  1.72E-04,  avg # of iterations =  2.2

     negative rho (up, down):  2.403E-03 0.000E+00

     total cpu time spent up to now is    71650.8 secs

     total energy              =   -1005.96744809 Ry
     Harris-Foulkes estimate   =   -1005.97595922 Ry
     estimated scf accuracy    <       0.56540612 Ry

     iteration # 25     ecut=    30.00 Ry     beta= 0.30
     Davidson diagonalization with overlap
     ethr =  1.72E-04,  avg # of iterations =  1.8

     negative rho (up, down):  4.759E-03 0.000E+00

     total cpu time spent up to now is    74355.3 secs

     total energy              =   -1005.97179707 Ry
     Harris-Foulkes estimate   =   -1005.97270316 Ry
     estimated scf accuracy    <       0.01990911 Ry

     iteration # 26     ecut=    30.00 Ry     beta= 0.30
     Davidson diagonalization with overlap
     c_bands:  2 eigenvalues not converged
     c_bands:  3 eigenvalues not converged
     c_bands:  2 eigenvalues not converged
     c_bands:  1 eigenvalues not converged
     c_bands:  1 eigenvalues not converged
     c_bands:  1 eigenvalues not converged
     c_bands:  2 eigenvalues not converged
     c_bands:  1 eigenvalues not converged
     c_bands:  3 eigenvalues not converged
     c_bands:  2 eigenvalues not converged
     c_bands:  3 eigenvalues not converged
     ethr =  8.16E-06,  avg # of iterations = 17.4

     negative rho (up, down):  4.677E-03 0.000E+00

     total cpu time spent up to now is    79180.2 secs

     total energy              =   -1005.97373514 Ry
     Harris-Foulkes estimate   =   -1005.97421479 Ry
     estimated scf accuracy    <       0.01829373 Ry

     iteration # 27     ecut=    30.00 Ry     beta= 0.30
     Davidson diagonalization with overlap
     c_bands:  1 eigenvalues not converged
     c_bands:  2 eigenvalues not converged
     ethr =  7.50E-06,  avg # of iterations =  2.5

     negative rho (up, down):  4.878E-03 0.000E+00

     total cpu time spent up to now is    81944.6 secs

     total energy              =   -1005.97366155 Ry
     Harris-Foulkes estimate   =   -1005.97403739 Ry
     estimated scf accuracy    <       0.00854779 Ry

     iteration # 28     ecut=    30.00 Ry     beta= 0.30
     Davidson diagonalization with overlap
     ethr =  3.50E-06,  avg # of iterations =  4.2

     negative rho (up, down):  4.961E-03 0.000E+00

     total cpu time spent up to now is    84822.9 secs

     total energy              =   -1005.97398377 Ry
     Harris-Foulkes estimate   =   -1005.97404246 Ry
     estimated scf accuracy    <       0.00853137 Ry

     iteration # 29     ecut=    30.00 Ry     beta= 0.30
     Davidson diagonalization with overlap
     ethr =  3.50E-06,  avg # of iterations =  1.1
