--------------------------------------------------------------------------
[[18433,1],0]: A high-performance Open MPI point-to-point messaging module
was unable to find any relevant network interfaces:

Module: OpenFabrics (openib)
  Host: ubuntu

Another transport will be used instead, although this may result in
lower performance.
--------------------------------------------------------------------------

     Program PWSCF v.5.1 starts on 28May2020 at 23:59:26 

     This program is part of the open-source Quantum ESPRESSO suite
     for quantum simulation of materials; please cite
         "P. Giannozzi et al., J. Phys.:Condens. Matter 21 395502 (2009);
          URL http://www.quantum-espresso.org", 
     in publications or presentations arising from this work. More details at
     http://www.quantum-espresso.org/quote

     Parallel version (MPI), running on     1 processors
     Reading input from Al_100_surf_slab_1.pw.in

     Current dimensions of program PWSCF are:
     Max number of different atomic species (ntypx) = 10
     Max number of k-points (npk) =  40000
     Max angular momentum in pseudopotentials (lmaxx) =  3

     Subspace diagonalization in iterative solution of the eigenvalue problem:
     a serial algorithm will be used

     Found symmetry operation: I + ( -0.5000 -0.5000  0.0000)
     This is a supercell, fractional translations are disabled

     G-vector sticks info
     --------------------
     sticks:   dense  smooth     PW     G-vecs:    dense   smooth      PW
     Sum         681     681    421                68149    68149   32199



     bravais-lattice index     =            6
     lattice parameter (alat)  =       7.6050  a.u.
     unit-cell volume          =    2199.2149 (a.u.)^3
     number of atoms/cell      =            4
     number of atomic types    =            1
     number of electrons       =        12.00
     number of Kohn-Sham states=           10
     kinetic-energy cutoff     =      80.0000  Ry
     charge density cutoff     =     150.0000  Ry
     convergence threshold     =      1.0E-06
     mixing beta               =       0.3000
     number of iterations used =            8  local-TF  mixing
     Exchange-correlation      =  SLA  PW   PBE  PBE ( 1  4  3  4 0)
     nstep                     =           50


     celldm(1)=   7.605000  celldm(2)=   0.000000  celldm(3)=   5.000000
     celldm(4)=   0.000000  celldm(5)=   0.000000  celldm(6)=   0.000000

     crystal axes: (cart. coord. in units of alat)
               a(1) = (   1.000000   0.000000   0.000000 )  
               a(2) = (   0.000000   1.000000   0.000000 )  
               a(3) = (   0.000000   0.000000   5.000000 )  

     reciprocal axes: (cart. coord. in units 2 pi/alat)
               b(1) = (  1.000000  0.000000  0.000000 )  
               b(2) = (  0.000000  1.000000  0.000000 )  
               b(3) = (  0.000000  0.000000  0.200000 )  


     PseudoPot. # 1 for Al read from file:
     ./Al.pbe-n-van.UPF
     MD5 check sum: b11ded24487aef5bc42d5c7a2e22a7b6
     Pseudo is Ultrasoft + core correction, Zval =  3.0
     Generated by new atomic code, or converted to UPF format
     Using radial grid of  893 points,  2 beta functions with: 
                l(1) =   0
                l(2) =   1
     Q(r) pseudized with  8 coefficients,  rinner =    0.900   0.900   0.900


     atomic species   valence    mass     pseudopotential
        Al             3.00    26.98000     Al( 1.00)

      8 Sym. Ops. (no inversion) found



   Cartesian axes

     site n.     atom                  positions (alat units)
         1           Al  tau(   1) = (   0.0000000   0.0000000   0.0000000  )
         2           Al  tau(   2) = (   0.5000000   0.5000000   0.0000000  )
         3           Al  tau(   3) = (   0.5000000   0.0000000   0.5000000  )
         4           Al  tau(   4) = (   0.0000000   0.5000000   0.5000000  )

     number of k points=    45  Marzari-Vanderbilt smearing, width (Ry)=  0.0250
                       cart. coord. in units 2pi/alat
        k(    1) = (   0.0000000   0.0000000   0.0000000), wk =   0.0078125
        k(    2) = (   0.0000000   0.0625000   0.0000000), wk =   0.0312500
        k(    3) = (   0.0000000   0.1250000   0.0000000), wk =   0.0312500
        k(    4) = (   0.0000000   0.1875000   0.0000000), wk =   0.0312500
        k(    5) = (   0.0000000   0.2500000   0.0000000), wk =   0.0312500
        k(    6) = (   0.0000000   0.3125000   0.0000000), wk =   0.0312500
        k(    7) = (   0.0000000   0.3750000   0.0000000), wk =   0.0312500
        k(    8) = (   0.0000000   0.4375000   0.0000000), wk =   0.0312500
        k(    9) = (   0.0000000  -0.5000000   0.0000000), wk =   0.0156250
        k(   10) = (   0.0625000   0.0625000   0.0000000), wk =   0.0312500
        k(   11) = (   0.0625000   0.1250000   0.0000000), wk =   0.0625000
        k(   12) = (   0.0625000   0.1875000   0.0000000), wk =   0.0625000
        k(   13) = (   0.0625000   0.2500000   0.0000000), wk =   0.0625000
        k(   14) = (   0.0625000   0.3125000   0.0000000), wk =   0.0625000
        k(   15) = (   0.0625000   0.3750000   0.0000000), wk =   0.0625000
        k(   16) = (   0.0625000   0.4375000   0.0000000), wk =   0.0625000
        k(   17) = (   0.0625000  -0.5000000   0.0000000), wk =   0.0312500
        k(   18) = (   0.1250000   0.1250000   0.0000000), wk =   0.0312500
        k(   19) = (   0.1250000   0.1875000   0.0000000), wk =   0.0625000
        k(   20) = (   0.1250000   0.2500000   0.0000000), wk =   0.0625000
        k(   21) = (   0.1250000   0.3125000   0.0000000), wk =   0.0625000
        k(   22) = (   0.1250000   0.3750000   0.0000000), wk =   0.0625000
        k(   23) = (   0.1250000   0.4375000   0.0000000), wk =   0.0625000
        k(   24) = (   0.1250000  -0.5000000   0.0000000), wk =   0.0312500
        k(   25) = (   0.1875000   0.1875000   0.0000000), wk =   0.0312500
        k(   26) = (   0.1875000   0.2500000   0.0000000), wk =   0.0625000
        k(   27) = (   0.1875000   0.3125000   0.0000000), wk =   0.0625000
        k(   28) = (   0.1875000   0.3750000   0.0000000), wk =   0.0625000
        k(   29) = (   0.1875000   0.4375000   0.0000000), wk =   0.0625000
        k(   30) = (   0.1875000  -0.5000000   0.0000000), wk =   0.0312500
        k(   31) = (   0.2500000   0.2500000   0.0000000), wk =   0.0312500
        k(   32) = (   0.2500000   0.3125000   0.0000000), wk =   0.0625000
        k(   33) = (   0.2500000   0.3750000   0.0000000), wk =   0.0625000
        k(   34) = (   0.2500000   0.4375000   0.0000000), wk =   0.0625000
        k(   35) = (   0.2500000  -0.5000000   0.0000000), wk =   0.0312500
        k(   36) = (   0.3125000   0.3125000   0.0000000), wk =   0.0312500
        k(   37) = (   0.3125000   0.3750000   0.0000000), wk =   0.0625000
        k(   38) = (   0.3125000   0.4375000   0.0000000), wk =   0.0625000
        k(   39) = (   0.3125000  -0.5000000   0.0000000), wk =   0.0312500
        k(   40) = (   0.3750000   0.3750000   0.0000000), wk =   0.0312500
        k(   41) = (   0.3750000   0.4375000   0.0000000), wk =   0.0625000
        k(   42) = (   0.3750000  -0.5000000   0.0000000), wk =   0.0312500
        k(   43) = (   0.4375000   0.4375000   0.0000000), wk =   0.0312500
        k(   44) = (   0.4375000  -0.5000000   0.0000000), wk =   0.0312500
        k(   45) = (  -0.5000000  -0.5000000   0.0000000), wk =   0.0078125

     Dense  grid:    68149 G-vectors     FFT dimensions: (  30,  30, 150)

     Largest allocated arrays     est. size (Mb)     dimensions
        Kohn-Sham Wavefunctions         4.07 Mb     (   26666,   10)
        NL pseudopotentials             6.51 Mb     (   26666,   16)
        Each V/rho on FFT grid          2.06 Mb     (  135000)
        Each G-vector array             0.52 Mb     (   68149)
        G-vector shells                 0.01 Mb     (    1894)
     Largest temporary arrays     est. size (Mb)     dimensions
        Auxiliary wavefunctions        16.28 Mb     (   26666,   40)
        Each subspace H/S matrix        0.02 Mb     (      40,   40)
        Each <psi_i|beta_j> matrix      0.00 Mb     (      16,   10)
        Arrays for rho mixing          16.48 Mb     (  135000,    8)

     Initial potential from superposition of free atoms

     starting charge   11.99014, renormalised to   12.00000

     negative rho (up, down):  3.783E-05 0.000E+00
     Starting wfc are   16 randomized atomic wfcs

     total cpu time spent up to now is       11.7 secs

     per-process dynamical memory:   225.8 Mb

     Self-consistent Calculation

     iteration #  1     ecut=    80.00 Ry     beta=0.30
     Davidson diagonalization with overlap
     ethr =  1.00E-02,  avg # of iterations =  3.1

     total cpu time spent up to now is       41.4 secs

     total energy              =     -49.74232249 Ry
     Harris-Foulkes estimate   =     -49.76156655 Ry
     estimated scf accuracy    <       0.18487534 Ry

     iteration #  2     ecut=    80.00 Ry     beta=0.30
     Davidson diagonalization with overlap
     ethr =  1.54E-03,  avg # of iterations =  1.0

     total cpu time spent up to now is       59.2 secs

     total energy              =     -49.68928263 Ry
     Harris-Foulkes estimate   =     -49.74565914 Ry
     estimated scf accuracy    <       0.12665806 Ry

     iteration #  3     ecut=    80.00 Ry     beta=0.30
     Davidson diagonalization with overlap
     ethr =  1.06E-03,  avg # of iterations =  2.0

     total cpu time spent up to now is       82.9 secs

     total energy              =     -49.71429927 Ry
     Harris-Foulkes estimate   =     -49.71783610 Ry
     estimated scf accuracy    <       0.01246072 Ry

     iteration #  4     ecut=    80.00 Ry     beta=0.30
     Davidson diagonalization with overlap
     ethr =  1.04E-04,  avg # of iterations =  2.8

     total cpu time spent up to now is      108.6 secs

     total energy              =     -49.71430166 Ry
     Harris-Foulkes estimate   =     -49.71591017 Ry
     estimated scf accuracy    <       0.00543356 Ry

     iteration #  5     ecut=    80.00 Ry     beta=0.30
     Davidson diagonalization with overlap
     ethr =  4.53E-05,  avg # of iterations =  1.3

     total cpu time spent up to now is      127.8 secs

     total energy              =     -49.71442050 Ry
     Harris-Foulkes estimate   =     -49.71466218 Ry
     estimated scf accuracy    <       0.00418410 Ry

     iteration #  6     ecut=    80.00 Ry     beta=0.30
     Davidson diagonalization with overlap
     ethr =  3.49E-05,  avg # of iterations =  1.0

     negative rho (up, down):  8.063E-04 0.000E+00

     total cpu time spent up to now is      148.2 secs

     total energy              =     -49.71237617 Ry
     Harris-Foulkes estimate   =     -49.71446926 Ry
     estimated scf accuracy    <       0.00450051 Ry

     iteration #  7     ecut=    80.00 Ry     beta=0.30
     Davidson diagonalization with overlap
     ethr =  3.49E-05,  avg # of iterations =  2.2

     negative rho (up, down):  1.043E-02 0.000E+00

     total cpu time spent up to now is      175.7 secs

     total energy              =     -49.71452252 Ry
     Harris-Foulkes estimate   =     -49.71423714 Ry
     estimated scf accuracy    <       0.00255870 Ry

     iteration #  8     ecut=    80.00 Ry     beta=0.30
     Davidson diagonalization with overlap
     ethr =  2.13E-05,  avg # of iterations =  1.3

     negative rho (up, down):  3.468E-03 0.000E+00

     total cpu time spent up to now is      196.0 secs

     total energy              =     -49.71262376 Ry
     Harris-Foulkes estimate   =     -49.71458740 Ry
     estimated scf accuracy    <       0.00352083 Ry

     iteration #  9     ecut=    80.00 Ry     beta=0.30
     Davidson diagonalization with overlap
     ethr =  2.13E-05,  avg # of iterations =  2.0

     negative rho (up, down):  3.597E-03 0.000E+00

     total cpu time spent up to now is      220.8 secs

     total energy              =     -49.71394289 Ry
     Harris-Foulkes estimate   =     -49.71405399 Ry
     estimated scf accuracy    <       0.00120546 Ry

     iteration # 10     ecut=    80.00 Ry     beta=0.30
     Davidson diagonalization with overlap
     ethr =  1.00E-05,  avg # of iterations =  1.2

     negative rho (up, down):  3.768E-04 0.000E+00

     total cpu time spent up to now is      241.9 secs

     total energy              =     -49.71358466 Ry
     Harris-Foulkes estimate   =     -49.71395850 Ry
     estimated scf accuracy    <       0.00074913 Ry

     iteration # 11     ecut=    80.00 Ry     beta=0.30
     Davidson diagonalization with overlap
     ethr =  6.24E-06,  avg # of iterations =  2.2

     negative rho (up, down):  4.960E-04 0.000E+00

     total cpu time spent up to now is      266.9 secs

     total energy              =     -49.71375192 Ry
     Harris-Foulkes estimate   =     -49.71376014 Ry
     estimated scf accuracy    <       0.00001735 Ry

     iteration # 12     ecut=    80.00 Ry     beta=0.30
     Davidson diagonalization with overlap
     ethr =  1.45E-07,  avg # of iterations =  2.0

     negative rho (up, down):  2.068E-05 0.000E+00

     total cpu time spent up to now is      293.4 secs

     total energy              =     -49.71375474 Ry
     Harris-Foulkes estimate   =     -49.71375688 Ry
     estimated scf accuracy    <       0.00000101 Ry

     iteration # 13     ecut=    80.00 Ry     beta=0.30
     Davidson diagonalization with overlap
     ethr =  8.46E-09,  avg # of iterations =  2.0

     negative rho (up, down):  3.460E-06 0.000E+00

     total cpu time spent up to now is      317.2 secs

     End of self-consistent calculation

          k = 0.0000 0.0000 0.0000 ( 26609 PWs)   bands (ev):

   -11.5241  -7.4277  -3.3659  -3.3659  -3.3583  -1.8546  -1.8546   0.4706
     0.4706   0.8639

          k = 0.0000 0.0625 0.0000 ( 26567 PWs)   bands (ev):

   -11.4886  -7.3926  -3.8992  -3.3332  -3.3250  -1.8209  -1.2618  -0.0177
     0.5027   0.8975

          k = 0.0000 0.1250 0.0000 ( 26551 PWs)   bands (ev):

   -11.3821  -7.2873  -4.7793  -3.2350  -3.2251  -1.7210  -0.8433  -0.2036
     0.5990   0.9975

          k = 0.0000 0.1875 0.0000 ( 26600 PWs)   bands (ev):

   -11.2047  -7.1120  -5.6651  -3.0713  -3.0589  -1.7180  -1.5230   0.7594
     0.9761   1.1601

          k = 0.0000 0.2500 0.0000 ( 26524 PWs)   bands (ev):

   -10.9567  -6.8671  -6.5070  -2.8421  -2.8266  -2.5104  -1.3066   0.9840
     1.0803   1.3478

          k = 0.0000 0.3125 0.0000 ( 26528 PWs)   bands (ev):

   -10.6384  -7.2922  -6.5531  -3.2715  -2.5475  -2.5289  -1.0060   0.4874
     0.5955   1.2727

          k = 0.0000 0.3750 0.0000 ( 26568 PWs)   bands (ev):

   -10.2504  -8.0158  -6.1706  -3.9770  -2.1873  -2.1667  -0.6408  -0.1269
    -0.0918   1.6250

          k = 0.0000 0.4375 0.0000 ( 26588 PWs)   bands (ev):

    -9.7933  -8.6749  -5.7204  -4.6220  -1.7616  -1.7416  -0.7148  -0.7138
    -0.2145   0.7933

          k = 0.0000-0.5000 0.0000 ( 26558 PWs)   bands (ev):

    -9.2678  -9.2678  -5.2038  -5.2038  -1.2704  -1.2704  -1.2560  -1.2560
     0.2675   0.2675

          k = 0.0625 0.0625 0.0000 ( 26537 PWs)   bands (ev):

   -11.4531  -7.3574  -3.8660  -3.8660  -3.2917  -1.2287  -1.2287   0.0127
     0.0127   0.9305

          k = 0.0625 0.1250 0.0000 ( 26552 PWs)   bands (ev):

   -11.3466  -7.2522  -4.7457  -3.7664  -3.1919  -1.1343  -0.8084  -0.1740
     0.1047   1.0267

          k = 0.0625 0.1875 0.0000 ( 26573 PWs)   bands (ev):

   -11.1692  -7.0770  -5.6311  -3.6005  -3.0258  -1.6657  -0.9550   0.2394
     1.0119   1.1605

          k = 0.0625 0.2500 0.0000 ( 26585 PWs)   bands (ev):

   -10.9213  -6.8322  -6.4728  -3.3692  -2.7939  -2.4741  -0.7242   0.3974
     0.8037   1.3986

          k = 0.0625 0.3125 0.0000 ( 26555 PWs)   bands (ev):

   -10.6031  -7.2578  -6.5183  -3.2470  -3.0594  -2.4966  -0.4269   0.0805
     0.3446   1.0973

          k = 0.0625 0.3750 0.0000 ( 26555 PWs)   bands (ev):

   -10.2152  -7.9812  -6.1360  -3.9442  -2.7033  -2.1353  -0.6003  -0.1345
    -0.0662   1.2923

          k = 0.0625 0.4375 0.0000 ( 26574 PWs)   bands (ev):

    -9.7582  -8.6401  -5.6861  -4.5884  -2.2744  -1.7117  -1.2217  -0.6961
     0.3549   1.3423

          k = 0.0625-0.5000 0.0000 ( 26598 PWs)   bands (ev):

    -9.2329  -9.2329  -5.1697  -5.1697  -1.7801  -1.7801  -1.2294  -1.2294
     0.8304   0.8304

          k = 0.1250 0.1250 0.0000 ( 26551 PWs)   bands (ev):

   -11.2401  -7.1471  -4.6448  -4.6448  -3.0924  -0.7277  -0.7277  -0.0673
    -0.0673   1.0906

          k = 0.1250 0.1875 0.0000 ( 26552 PWs)   bands (ev):

   -11.0629  -6.9721  -5.5293  -4.4769  -2.9269  -1.5680  -0.5781   0.0958
     0.7400   1.1097

          k = 0.1250 0.2500 0.0000 ( 26563 PWs)   bands (ev):

   -10.8152  -6.7276  -6.3702  -4.2423  -2.6958  -2.3760  -0.3859  -0.0230
     0.3246   1.6103

          k = 0.1250 0.3125 0.0000 ( 26555 PWs)   bands (ev):

   -10.4973  -7.1546  -6.4142  -3.9429  -3.1335  -2.4002  -0.7624  -0.2008
     0.6173   1.0217

          k = 0.1250 0.3750 0.0000 ( 26573 PWs)   bands (ev):

   -10.1097  -7.8774  -6.0324  -3.8542  -3.5579  -2.0417  -1.4479  -0.2463
     0.7620   0.9715

          k = 0.1250 0.4375 0.0000 ( 26557 PWs)   bands (ev):

    -9.6530  -8.5358  -5.5832  -4.4882  -3.1337  -2.0733  -1.6238  -0.6585
     0.9839   1.3829

          k = 0.1250-0.5000 0.0000 ( 26554 PWs)   bands (ev):

    -9.1281  -9.1281  -5.0678  -5.0678  -2.6359  -2.6359  -1.1544  -1.1544
     1.4110   1.4111

          k = 0.1875 0.1875 0.0000 ( 26561 PWs)   bands (ev):

   -10.8859  -6.7975  -5.3598  -5.3598  -2.7624  -1.4118  -1.4118  -0.0697
     1.2715   1.2715

          k = 0.1875 0.2500 0.0000 ( 26541 PWs)   bands (ev):

   -10.6385  -6.5536  -6.1994  -5.1230  -2.5331  -2.2148  -1.2000  -0.8663
     1.4968   1.8144

          k = 0.1875 0.3125 0.0000 ( 26566 PWs)   bands (ev):

   -10.3210  -6.9827  -6.2408  -4.8195  -2.9702  -2.2409  -1.6146  -0.9471
     1.1367   1.7841

          k = 0.1875 0.3750 0.0000 ( 26569 PWs)   bands (ev):

    -9.9339  -7.7045  -5.8600  -4.4520  -3.6678  -2.3056  -1.8888  -0.7098
     0.5855   1.7427

          k = 0.1875 0.4375 0.0000 ( 26566 PWs)   bands (ev):

    -9.4779  -8.3621  -5.4122  -4.3322  -3.9919  -2.9354  -1.4852  -0.7086
     0.3912   1.1561

          k = 0.1875-0.5000 0.0000 ( 26550 PWs)   bands (ev):

    -8.9536  -8.9536  -4.8992  -4.8992  -3.5012  -3.5012  -1.0556  -1.0556
     0.6695   0.6695

          k = 0.2500 0.2500 0.0000 ( 26595 PWs)   bands (ev):

   -10.3915  -6.3104  -5.9608  -5.9608  -2.3074  -1.9925  -1.9925  -1.6728
     2.0591   2.0591

          k = 0.2500 0.3125 0.0000 ( 26582 PWs)   bands (ev):

   -10.0746  -6.7425  -5.9988  -5.6547  -2.7419  -2.4270  -2.0218  -1.7146
     1.3494   1.6358

          k = 0.2500 0.3750 0.0000 ( 26571 PWs)   bands (ev):

    -9.6882  -7.4629  -5.6195  -5.2820  -3.4378  -3.1226  -1.6846  -1.3968
     0.7154   0.9888

          k = 0.2500 0.4375 0.0000 ( 26591 PWs)   bands (ev):

    -9.2330  -8.1192  -5.1745  -4.8465  -4.0715  -3.7554  -1.3215  -1.0989
     0.2246   0.4400

          k = 0.2500-0.5000 0.0000 ( 26572 PWs)   bands (ev):

    -8.7097  -8.7097  -4.6763  -4.6763  -4.3122  -4.3122  -1.0400  -1.0400
     0.0988   0.0988

          k = 0.3125 0.3125 0.0000 ( 26611 PWs)   bands (ev):

    -9.7584  -6.4343  -6.4343  -5.6888  -3.1859  -2.4521  -2.4521  -1.7512
     0.9314   1.6355

          k = 0.3125 0.3750 0.0000 ( 26595 PWs)   bands (ev):

    -9.3730  -7.1529  -6.0588  -5.3126  -3.8843  -3.1415  -2.1069  -1.4547
     0.3213   0.9758

          k = 0.3125 0.4375 0.0000 ( 26596 PWs)   bands (ev):

    -8.9188  -7.8076  -5.6170  -4.8838  -4.5069  -3.7741  -1.7227  -1.2393
    -0.0835   0.4011

          k = 0.3125-0.5000 0.0000 ( 26580 PWs)   bands (ev):

    -8.3967  -8.3967  -5.1134  -5.1134  -4.3418  -4.3418  -1.3606  -1.3606
    -0.0252  -0.0252

          k = 0.3750 0.3750 0.0000 ( 26618 PWs)   bands (ev):

    -8.9886  -6.7750  -6.7750  -4.9531  -4.5721  -2.7836  -2.7836  -1.3058
    -0.1452   1.3196

          k = 0.3750 0.4375 0.0000 ( 26586 PWs)   bands (ev):

    -8.5357  -7.4278  -6.3301  -5.2478  -4.4772  -3.4096  -2.3707  -1.4920
    -0.1520   0.7204

          k = 0.3750-0.5000 0.0000 ( 26618 PWs)   bands (ev):

    -8.0151  -8.0151  -5.8194  -5.8194  -3.9767  -3.9767  -1.9197  -1.9197
     0.2090   0.2090

          k = 0.4375 0.4375 0.0000 ( 26638 PWs)   bands (ev):

    -8.0844  -6.9804  -6.9804  -5.8871  -4.0443  -2.9837  -2.9837  -1.9855
     0.1445   1.1271

          k = 0.4375-0.5000 0.0000 ( 26666 PWs)   bands (ev):

    -7.5656  -7.5656  -6.4663  -6.4663  -3.5441  -3.5441  -2.5033  -2.5033
     0.5914   0.5914

          k =-0.5000-0.5000 0.0000 ( 26616 PWs)   bands (ev):

    -7.0489  -7.0489  -7.0489  -7.0489  -3.0505  -3.0505  -3.0505  -3.0505
     1.0625   1.0625

     the Fermi energy is    -1.8608 ev

!    total energy              =     -49.71375510 Ry
     Harris-Foulkes estimate   =     -49.71375519 Ry
     estimated scf accuracy    <       0.00000047 Ry

     The total energy is the sum of the following terms:

     one-electron contribution =    -115.30065425 Ry
     hartree contribution      =      59.30090992 Ry
     xc contribution           =     -39.69929219 Ry
     ewald contribution        =      45.98515087 Ry
     smearing contrib. (-TS)   =       0.00013055 Ry

     convergence has been achieved in  13 iterations

     Forces acting on atoms (Ry/au):


     negative rho (up, down):  3.460E-06 0.000E+00
     atom    1 type  1   force =     0.00000000    0.00000000   -0.00841853
     atom    2 type  1   force =     0.00000000    0.00000000   -0.00841856
     atom    3 type  1   force =     0.00000000    0.00000000    0.00841854
     atom    4 type  1   force =     0.00000000    0.00000000    0.00841854

     Total force =     0.016837     Total SCF correction =     0.000647


     entering subroutine stress ...


     negative rho (up, down):  3.460E-06 0.000E+00
          total   stress  (Ry/bohr**3)                   (kbar)     P=  -10.21
  -0.00011829   0.00000000   0.00000000        -17.40      0.00      0.00
   0.00000000  -0.00011829   0.00000000          0.00    -17.40      0.00
   0.00000000   0.00000000   0.00002845          0.00      0.00      4.18


     BFGS Geometry Optimization

     number of scf cycles    =   1
     number of bfgs steps    =   0

     energy   new            =     -49.7137551029 Ry

     new trust radius        =       0.0084185584 bohr
     new conv_thr            =       0.0000010000 Ry


ATOMIC_POSITIONS (crystal)
Al       0.000000000   0.000000000  -0.000221395
Al       0.500000000   0.500000000  -0.000221395
Al       0.500000000   0.000000000   0.100221395
Al       0.000000000   0.500000000   0.100221395



     Writing output data file Al_100_1_4.save
     NEW-OLD atomic charge density approx. for the potential

     negative rho (up, down):  2.991E-06 0.000E+00

     total cpu time spent up to now is      329.6 secs

     per-process dynamical memory:   255.6 Mb

     Self-consistent Calculation

     iteration #  1     ecut=    80.00 Ry     beta=0.30
     Davidson diagonalization with overlap
     ethr =  1.00E-06,  avg # of iterations =  3.0

     Threshold (ethr) on eigenvalues was too large:
     Diagonalizing with lowered threshold

     Davidson diagonalization with overlap
     ethr =  3.51E-08,  avg # of iterations =  2.0

     negative rho (up, down):  2.274E-06 0.000E+00

     total cpu time spent up to now is      382.0 secs

     total energy              =     -49.71402188 Ry
     Harris-Foulkes estimate   =     -49.71402243 Ry
     estimated scf accuracy    <       0.00000436 Ry

     iteration #  2     ecut=    80.00 Ry     beta=0.30
     Davidson diagonalization with overlap
     ethr =  3.64E-08,  avg # of iterations =  1.0

     negative rho (up, down):  9.992E-07 0.000E+00

     total cpu time spent up to now is      406.4 secs

     total energy              =     -49.71402075 Ry
     Harris-Foulkes estimate   =     -49.71402194 Ry
     estimated scf accuracy    <       0.00000262 Ry

     iteration #  3     ecut=    80.00 Ry     beta=0.30
     Davidson diagonalization with overlap
     ethr =  2.19E-08,  avg # of iterations =  2.0

     negative rho (up, down):  3.445E-06 0.000E+00

     total cpu time spent up to now is      427.1 secs

     End of self-consistent calculation

          k = 0.0000 0.0000 0.0000 ( 26609 PWs)   bands (ev):

   -11.5093  -7.4400  -3.3708  -3.3487  -3.3487  -1.8414  -1.8414   0.4562
     0.4562   0.8510

          k = 0.0000 0.0625 0.0000 ( 26567 PWs)   bands (ev):

   -11.4738  -7.4049  -3.8829  -3.3375  -3.3159  -1.8077  -1.2477  -0.0304
     0.4882   0.8846

          k = 0.0000 0.1250 0.0000 ( 26551 PWs)   bands (ev):

   -11.3672  -7.2996  -4.7635  -3.2376  -3.2177  -1.7082  -0.8548  -0.1891
     0.5845   0.9847

          k = 0.0000 0.1875 0.0000 ( 26600 PWs)   bands (ev):

   -11.1898  -7.1243  -5.6496  -3.0713  -3.0540  -1.7299  -1.5095   0.7449
     0.9902   1.1476

          k = 0.0000 0.2500 0.0000 ( 26524 PWs)   bands (ev):

   -10.9418  -6.8794  -6.4917  -2.8389  -2.8248  -2.5227  -1.2924   0.9694
     1.0724   1.3655

          k = 0.0000 0.3125 0.0000 ( 26528 PWs)   bands (ev):

   -10.6236  -7.2771  -6.5653  -3.2837  -2.5411  -2.5301  -0.9919   0.4779
     0.6131   1.2581

          k = 0.0000 0.3750 0.0000 ( 26568 PWs)   bands (ev):

   -10.2356  -8.0007  -6.1828  -3.9891  -2.1788  -2.1699  -0.6266  -0.1375
    -0.0742   1.6102

          k = 0.0000 0.4375 0.0000 ( 26588 PWs)   bands (ev):

    -9.7784  -8.6599  -5.7326  -4.6341  -1.7535  -1.7442  -0.7260  -0.6963
    -0.2002   0.8079

          k = 0.0000-0.5000 0.0000 ( 26558 PWs)   bands (ev):

    -9.2529  -9.2529  -5.2159  -5.2159  -1.2677  -1.2677  -1.2529  -1.2529
     0.2821   0.2821

          k = 0.0625 0.0625 0.0000 ( 26537 PWs)   bands (ev):

   -11.4383  -7.3698  -3.8496  -3.8496  -3.3042  -1.2147  -1.2147   0.0000
     0.0000   0.9176

          k = 0.0625 0.1250 0.0000 ( 26552 PWs)   bands (ev):

   -11.3317  -7.2645  -4.7299  -3.7500  -3.2044  -1.1219  -0.8185  -0.1606
     0.0932   1.0142

          k = 0.0625 0.1875 0.0000 ( 26573 PWs)   bands (ev):

   -11.1544  -7.0893  -5.6156  -3.5842  -3.0382  -1.6780  -0.9401   0.2269
     1.0265   1.1510

          k = 0.0625 0.2500 0.0000 ( 26585 PWs)   bands (ev):

   -10.9064  -6.8445  -6.4574  -3.3530  -2.8062  -2.4860  -0.7094   0.3861
     0.8196   1.3866

          k = 0.0625 0.3125 0.0000 ( 26555 PWs)   bands (ev):

   -10.5883  -7.2426  -6.5306  -3.2587  -3.0433  -2.5088  -0.4121   0.0975
     0.3353   1.0820

          k = 0.0625 0.3750 0.0000 ( 26555 PWs)   bands (ev):

   -10.2004  -7.9661  -6.1482  -3.9564  -2.6866  -2.1473  -0.5834  -0.1447
    -0.0512   1.2772

          k = 0.0625 0.4375 0.0000 ( 26574 PWs)   bands (ev):

    -9.7433  -8.6251  -5.6983  -4.6005  -2.2576  -1.7235  -1.2048  -0.7072
     0.3700   1.3571

          k = 0.0625-0.5000 0.0000 ( 26598 PWs)   bands (ev):

    -9.2179  -9.2179  -5.1819  -5.1819  -1.7633  -1.7633  -1.2410  -1.2410
     0.8456   0.8456

          k = 0.1250 0.1250 0.0000 ( 26551 PWs)   bands (ev):

   -11.2253  -7.1594  -4.6290  -4.6290  -3.1048  -0.7400  -0.7400  -0.0522
    -0.0522   1.0811

          k = 0.1250 0.1875 0.0000 ( 26552 PWs)   bands (ev):

   -11.0481  -6.9844  -5.5138  -4.4611  -2.9392  -1.5800  -0.5900   0.1108
     0.7547   1.1245

          k = 0.1250 0.2500 0.0000 ( 26563 PWs)   bands (ev):

   -10.8003  -6.7399  -6.3549  -4.2266  -2.7081  -2.3877  -0.3972  -0.0063
     0.3397   1.5971

          k = 0.1250 0.3125 0.0000 ( 26555 PWs)   bands (ev):

   -10.4824  -7.1394  -6.4264  -3.9274  -3.1449  -2.4123  -0.7458  -0.2110
     0.6325   1.0068

          k = 0.1250 0.3750 0.0000 ( 26573 PWs)   bands (ev):

   -10.0948  -7.8623  -6.0446  -3.8662  -3.5419  -2.0537  -1.4314  -0.2555
     0.7458   0.9868

          k = 0.1250 0.4375 0.0000 ( 26557 PWs)   bands (ev):

    -9.6381  -8.5207  -5.5954  -4.5004  -3.1174  -2.0569  -1.6355  -0.6689
     0.9687   1.3984

          k = 0.1250-0.5000 0.0000 ( 26554 PWs)   bands (ev):

    -9.1131  -9.1131  -5.0800  -5.0800  -2.6196  -2.6196  -1.1657  -1.1657
     1.3964   1.3965

          k = 0.1875 0.1875 0.0000 ( 26561 PWs)   bands (ev):

   -10.8711  -6.8098  -5.3443  -5.3443  -2.7746  -1.4235  -1.4235  -0.0532
     1.2864   1.2864

          k = 0.1875 0.2500 0.0000 ( 26541 PWs)   bands (ev):

   -10.6237  -6.5658  -6.1841  -5.1075  -2.5453  -2.2265  -1.2114  -0.8498
     1.5119   1.8006

          k = 0.1875 0.3125 0.0000 ( 26566 PWs)   bands (ev):

   -10.3062  -6.9675  -6.2531  -4.8040  -2.9818  -2.2529  -1.5982  -0.9580
     1.1224   1.7993

          k = 0.1875 0.3750 0.0000 ( 26569 PWs)   bands (ev):

    -9.9190  -7.6894  -5.8722  -4.4371  -3.6789  -2.2893  -1.9006  -0.7196
     0.5699   1.7282

          k = 0.1875 0.4375 0.0000 ( 26566 PWs)   bands (ev):

    -9.4629  -8.3470  -5.4244  -4.3442  -3.9760  -2.9192  -1.4966  -0.7179
     0.3749   1.1416

          k = 0.1875-0.5000 0.0000 ( 26550 PWs)   bands (ev):

    -8.9386  -8.9386  -4.9115  -4.9115  -3.4850  -3.4850  -1.0661  -1.0661
     0.6543   0.6543

          k = 0.2500 0.2500 0.0000 ( 26595 PWs)   bands (ev):

   -10.3767  -6.3227  -5.9454  -5.9454  -2.3194  -2.0040  -2.0040  -1.6564
     2.0449   2.0449

          k = 0.2500 0.3125 0.0000 ( 26582 PWs)   bands (ev):

   -10.0597  -6.7273  -6.0110  -5.6393  -2.7535  -2.4108  -2.0336  -1.7258
     1.3352   1.6216

          k = 0.2500 0.3750 0.0000 ( 26571 PWs)   bands (ev):

    -9.6733  -7.4478  -5.6318  -5.2668  -3.4493  -3.1065  -1.6960  -1.4076
     0.7007   0.9744

          k = 0.2500 0.4375 0.0000 ( 26591 PWs)   bands (ev):

    -9.2181  -8.1042  -5.1868  -4.8319  -4.0824  -3.7393  -1.3321  -1.1085
     0.2087   0.4249

          k = 0.2500-0.5000 0.0000 ( 26572 PWs)   bands (ev):

    -8.6947  -8.6947  -4.6882  -4.6882  -4.2965  -4.2965  -1.0493  -1.0493
     0.0825   0.0825

          k = 0.3125 0.3125 0.0000 ( 26611 PWs)   bands (ev):

    -9.7435  -6.4191  -6.4191  -5.7010  -3.1698  -2.4635  -2.4635  -1.7626
     0.9170   1.6212

          k = 0.3125 0.3750 0.0000 ( 26595 PWs)   bands (ev):

    -9.3580  -7.1378  -6.0435  -5.3249  -3.8683  -3.1530  -2.1181  -1.4654
     0.3062   0.9614

          k = 0.3125 0.4375 0.0000 ( 26596 PWs)   bands (ev):

    -8.9038  -7.7926  -5.6019  -4.8956  -4.4913  -3.7855  -1.7334  -1.2486
    -0.0999   0.3861

          k = 0.3125-0.5000 0.0000 ( 26580 PWs)   bands (ev):

    -8.3817  -8.3817  -5.0990  -5.0990  -4.3525  -4.3525  -1.3702  -1.3702
    -0.0412  -0.0412

          k = 0.3750 0.3750 0.0000 ( 26618 PWs)   bands (ev):

    -8.9736  -6.7599  -6.7599  -4.9650  -4.5565  -2.7951  -2.7951  -1.3151
    -0.1615   1.3053

          k = 0.3750 0.4375 0.0000 ( 26586 PWs)   bands (ev):

    -8.5207  -7.4127  -6.3150  -5.2334  -4.4879  -3.4211  -2.3819  -1.5016
    -0.1681   0.7059

          k = 0.3750-0.5000 0.0000 ( 26618 PWs)   bands (ev):

    -8.0001  -8.0001  -5.8044  -5.8044  -3.9881  -3.9881  -1.9303  -1.9303
     0.1940   0.1940

          k = 0.4375 0.4375 0.0000 ( 26638 PWs)   bands (ev):

    -8.0693  -6.9653  -6.9653  -5.8721  -4.0558  -2.9951  -2.9951  -1.9962
     0.1294   1.1126

          k = 0.4375-0.5000 0.0000 ( 26666 PWs)   bands (ev):

    -7.5505  -7.5505  -6.4512  -6.4512  -3.5556  -3.5556  -2.5144  -2.5144
     0.5768   0.5768

          k =-0.5000-0.5000 0.0000 ( 26616 PWs)   bands (ev):

    -7.0339  -7.0339  -7.0339  -7.0339  -3.0619  -3.0619  -3.0619  -3.0619
     1.0480   1.0480

     the Fermi energy is    -1.8655 ev

!    total energy              =     -49.71402122 Ry
     Harris-Foulkes estimate   =     -49.71402136 Ry
     estimated scf accuracy    <       0.00000015 Ry

     The total energy is the sum of the following terms:

     one-electron contribution =    -115.11793391 Ry
     hartree contribution      =      59.21402762 Ry
     xc contribution           =     -39.69525344 Ry
     ewald contribution        =      45.88499262 Ry
     smearing contrib. (-TS)   =       0.00014590 Ry

     convergence has been achieved in   3 iterations

     Forces acting on atoms (Ry/au):


     negative rho (up, down):  3.445E-06 0.000E+00
     atom    1 type  1   force =     0.00000000    0.00000000   -0.00737341
     atom    2 type  1   force =     0.00000000    0.00000000   -0.00737340
     atom    3 type  1   force =     0.00000000    0.00000000    0.00737340
     atom    4 type  1   force =     0.00000000    0.00000000    0.00737340

     Total force =     0.014747     Total SCF correction =     0.000404


     entering subroutine stress ...


     negative rho (up, down):  3.445E-06 0.000E+00
          total   stress  (Ry/bohr**3)                   (kbar)     P=  -10.50
  -0.00012001   0.00000000   0.00000000        -17.65      0.00      0.00
   0.00000000  -0.00012001   0.00000000          0.00    -17.65      0.00
   0.00000000   0.00000000   0.00002584          0.00      0.00      3.80


     number of scf cycles    =   2
     number of bfgs steps    =   1

     energy   old            =     -49.7137551029 Ry
     energy   new            =     -49.7140212153 Ry

     CASE: energy  _new < energy  _old


     WARNING: bfgs curvature condition failed, Theta= 0.913
     new trust radius        =       0.0092604142 bohr
     new conv_thr            =       0.0000000266 Ry


ATOMIC_POSITIONS (crystal)
Al       0.000000000   0.000000000  -0.000464929
Al       0.500000000   0.500000000  -0.000464930
Al       0.500000000   0.000000000   0.100464930
Al       0.000000000   0.500000000   0.100464930



     Writing output data file Al_100_1_4.save
     NEW-OLD atomic charge density approx. for the potential

     negative rho (up, down):  2.943E-06 0.000E+00

     total cpu time spent up to now is      437.5 secs

     per-process dynamical memory:   255.6 Mb

     Self-consistent Calculation

     iteration #  1     ecut=    80.00 Ry     beta=0.30
     Davidson diagonalization with overlap
     ethr =  1.00E-06,  avg # of iterations =  3.1

     negative rho (up, down):  3.400E-06 0.000E+00

     total cpu time spent up to now is      468.9 secs

     total energy              =     -49.71427713 Ry
     Harris-Foulkes estimate   =     -49.71427945 Ry
     estimated scf accuracy    <       0.00001894 Ry

     iteration #  2     ecut=    80.00 Ry     beta=0.30
     Davidson diagonalization with overlap
     ethr =  1.58E-07,  avg # of iterations =  1.0

     negative rho (up, down):  6.829E-06 0.000E+00

     total cpu time spent up to now is      488.5 secs

     total energy              =     -49.71427229 Ry
     Harris-Foulkes estimate   =     -49.71427759 Ry
     estimated scf accuracy    <       0.00001144 Ry

     iteration #  3     ecut=    80.00 Ry     beta=0.30
     Davidson diagonalization with overlap
     ethr =  9.53E-08,  avg # of iterations =  2.0

     negative rho (up, down):  6.737E-06 0.000E+00

     total cpu time spent up to now is      512.1 secs

     total energy              =     -49.71427487 Ry
     Harris-Foulkes estimate   =     -49.71427495 Ry
     estimated scf accuracy    <       0.00000032 Ry

     iteration #  4     ecut=    80.00 Ry     beta=0.30
     Davidson diagonalization with overlap
     ethr =  2.68E-09,  avg # of iterations =  1.5

     negative rho (up, down):  7.348E-06 0.000E+00

     total cpu time spent up to now is      533.9 secs

     total energy              =     -49.71427489 Ry
     Harris-Foulkes estimate   =     -49.71427490 Ry
     estimated scf accuracy    <       0.00000011 Ry

     iteration #  5     ecut=    80.00 Ry     beta=0.30
     Davidson diagonalization with overlap
     ethr =  9.04E-10,  avg # of iterations =  2.0

     negative rho (up, down):  7.319E-06 0.000E+00

     total cpu time spent up to now is      561.8 secs

     total energy              =     -49.71427492 Ry
     Harris-Foulkes estimate   =     -49.71427491 Ry
     estimated scf accuracy    <       0.00000003 Ry

     iteration #  6     ecut=    80.00 Ry     beta=0.30
     Davidson diagonalization with overlap
     ethr =  2.26E-10,  avg # of iterations =  1.7

     negative rho (up, down):  6.754E-06 0.000E+00

     total cpu time spent up to now is      581.7 secs

     total energy              =     -49.71427492 Ry
     Harris-Foulkes estimate   =     -49.71427493 Ry
     estimated scf accuracy    <       0.00000007 Ry

     iteration #  7     ecut=    80.00 Ry     beta=0.30
     Davidson diagonalization with overlap
     ethr =  2.26E-10,  avg # of iterations =  1.0

     negative rho (up, down):  4.965E-06 0.000E+00

     total cpu time spent up to now is      602.9 secs

     total energy              =     -49.71427492 Ry
     Harris-Foulkes estimate   =     -49.71427492 Ry
     estimated scf accuracy    <       0.00000005 Ry

     iteration #  8     ecut=    80.00 Ry     beta=0.30
     Davidson diagonalization with overlap
     ethr =  2.26E-10,  avg # of iterations =  2.0

     negative rho (up, down):  3.405E-06 0.000E+00

     total cpu time spent up to now is      623.8 secs

     End of self-consistent calculation

          k = 0.0000 0.0000 0.0000 ( 26609 PWs)   bands (ev):

   -11.4834  -7.4461  -3.3781  -3.3202  -3.3202  -1.8171  -1.8171   0.4481
     0.4481   0.8416

          k = 0.0000 0.0625 0.0000 ( 26567 PWs)   bands (ev):

   -11.4479  -7.4110  -3.8553  -3.3448  -3.2874  -1.7835  -1.2225  -0.0367
     0.4802   0.8752

          k = 0.0000 0.1250 0.0000 ( 26551 PWs)   bands (ev):

   -11.3413  -7.3057  -4.7366  -3.2449  -3.1892  -1.6846  -0.8596  -0.1636
     0.5764   0.9755

          k = 0.0000 0.1875 0.0000 ( 26600 PWs)   bands (ev):

   -11.1639  -7.1304  -5.6229  -3.0785  -3.0255  -1.7357  -1.4847   0.7368
     1.0153   1.1389

          k = 0.0000 0.2500 0.0000 ( 26524 PWs)   bands (ev):

   -10.9159  -6.8855  -6.4652  -2.8461  -2.7962  -2.5289  -1.2671   0.9613
     1.0702   1.3944

          k = 0.0000 0.3125 0.0000 ( 26528 PWs)   bands (ev):

   -10.5976  -7.2507  -6.5714  -3.2897  -2.5482  -2.5015  -0.9666   0.4738
     0.6420   1.2499

          k = 0.0000 0.3750 0.0000 ( 26568 PWs)   bands (ev):

   -10.2096  -7.9745  -6.1889  -3.9951  -2.1857  -2.1413  -0.6012  -0.1427
    -0.0453   1.6015

          k = 0.0000 0.4375 0.0000 ( 26588 PWs)   bands (ev):

    -9.7524  -8.6337  -5.7387  -4.6401  -1.7601  -1.7155  -0.7319  -0.6675
    -0.1747   0.8335

          k = 0.0000-0.5000 0.0000 ( 26558 PWs)   bands (ev):

    -9.2268  -9.2268  -5.2219  -5.2219  -1.2740  -1.2740  -1.2242  -1.2242
     0.3078   0.3078

          k = 0.0625 0.0625 0.0000 ( 26537 PWs)   bands (ev):

   -11.4124  -7.3759  -3.8221  -3.8221  -3.3115  -1.1897  -1.1897  -0.0062
    -0.0062   0.9083

          k = 0.0625 0.1250 0.0000 ( 26552 PWs)   bands (ev):

   -11.3058  -7.2706  -4.7029  -3.7225  -3.2117  -1.0993  -0.8214  -0.1367
     0.0887   1.0053

          k = 0.0625 0.1875 0.0000 ( 26573 PWs)   bands (ev):

   -11.1285  -7.0954  -5.5890  -3.5567  -3.0455  -1.6841  -0.9141   0.2207
     1.0522   1.1454

          k = 0.0625 0.2500 0.0000 ( 26585 PWs)   bands (ev):

   -10.8805  -6.8506  -6.4310  -3.3256  -2.8133  -2.4916  -0.6835   0.3811
     0.8461   1.3802

          k = 0.0625 0.3125 0.0000 ( 26555 PWs)   bands (ev):

   -10.5623  -7.2163  -6.5367  -3.2643  -3.0159  -2.5159  -0.3861   0.1257
     0.3320   1.0726

          k = 0.0625 0.3750 0.0000 ( 26555 PWs)   bands (ev):

   -10.1744  -7.9399  -6.1543  -3.9624  -2.6587  -2.1542  -0.5552  -0.1494
    -0.0252   1.2683

          k = 0.0625 0.4375 0.0000 ( 26574 PWs)   bands (ev):

    -9.7173  -8.5989  -5.7043  -4.6065  -2.2297  -1.7301  -1.1767  -0.7129
     0.3962   1.3827

          k = 0.0625-0.5000 0.0000 ( 26598 PWs)   bands (ev):

    -9.1918  -9.1918  -5.1879  -5.1879  -1.7353  -1.7353  -1.2472  -1.2472
     0.8719   0.8719

          k = 0.1250 0.1250 0.0000 ( 26551 PWs)   bands (ev):

   -11.1994  -7.1655  -4.6021  -4.6021  -3.1121  -0.7460  -0.7460  -0.0260
    -0.0260   1.0755

          k = 0.1250 0.1875 0.0000 ( 26552 PWs)   bands (ev):

   -11.0222  -6.9905  -5.4872  -4.4341  -2.9464  -1.5856  -0.5955   0.1370
     0.7796   1.1504

          k = 0.1250 0.2500 0.0000 ( 26563 PWs)   bands (ev):

   -10.7744  -6.7460  -6.3284  -4.1997  -2.7152  -2.3932  -0.4022   0.0214
     0.3660   1.5894

          k = 0.1250 0.3125 0.0000 ( 26555 PWs)   bands (ev):

   -10.4565  -7.1131  -6.4325  -3.9010  -3.1499  -2.4193  -0.7179  -0.2149
     0.6588   0.9974

          k = 0.1250 0.3750 0.0000 ( 26573 PWs)   bands (ev):

   -10.0688  -7.8360  -6.0507  -3.8720  -3.5146  -2.0604  -1.4036  -0.2589
     0.7355   1.0133

          k = 0.1250 0.4375 0.0000 ( 26557 PWs)   bands (ev):

    -9.6121  -8.4946  -5.6014  -4.5065  -3.0898  -2.0292  -1.6419  -0.6739
     0.9596   1.4250

          k = 0.1250-0.5000 0.0000 ( 26554 PWs)   bands (ev):

    -9.0870  -9.0870  -5.0860  -5.0860  -2.5920  -2.5920  -1.1716  -1.1716
     1.3880   1.3880

          k = 0.1875 0.1875 0.0000 ( 26561 PWs)   bands (ev):

   -10.8452  -6.8159  -5.3177  -5.3177  -2.7817  -1.4289  -1.4289  -0.0255
     1.3124   1.3124

          k = 0.1875 0.2500 0.0000 ( 26541 PWs)   bands (ev):

   -10.5977  -6.5719  -6.1576  -5.0808  -2.5523  -2.2319  -1.2166  -0.8221
     1.5380   1.7922

          k = 0.1875 0.3125 0.0000 ( 26566 PWs)   bands (ev):

   -10.2802  -6.9412  -6.2591  -4.7775  -2.9871  -2.2597  -1.5706  -0.9626
     1.1134   1.8255

          k = 0.1875 0.3750 0.0000 ( 26569 PWs)   bands (ev):

    -9.8930  -7.6632  -5.8783  -4.4112  -3.6836  -2.2618  -1.9071  -0.7231
     0.5596   1.7200

          k = 0.1875 0.4375 0.0000 ( 26566 PWs)   bands (ev):

    -9.4369  -8.3209  -5.4305  -4.3500  -3.9490  -2.8918  -1.5026  -0.7213
     0.3643   1.1332

          k = 0.1875-0.5000 0.0000 ( 26550 PWs)   bands (ev):

    -8.9125  -8.9125  -4.9176  -4.9176  -3.4576  -3.4576  -1.0712  -1.0712
     0.6452   0.6452

          k = 0.2500 0.2500 0.0000 ( 26595 PWs)   bands (ev):

   -10.3507  -6.3287  -5.9189  -5.9189  -2.3262  -2.0093  -2.0093  -1.6289
     2.0362   2.0362

          k = 0.2500 0.3125 0.0000 ( 26582 PWs)   bands (ev):

   -10.0337  -6.7009  -6.0171  -5.6129  -2.7588  -2.3834  -2.0402  -1.7308
     1.3263   1.6137

          k = 0.2500 0.3750 0.0000 ( 26571 PWs)   bands (ev):

    -9.6473  -7.4215  -5.6379  -5.2405  -3.4545  -3.0791  -1.7021  -1.4120
     0.6911   0.9661

          k = 0.2500 0.4375 0.0000 ( 26591 PWs)   bands (ev):

    -9.1920  -8.0780  -5.1930  -4.8064  -4.0868  -3.7120  -1.3373  -1.1120
     0.1981   0.4157

          k = 0.2500-0.5000 0.0000 ( 26572 PWs)   bands (ev):

    -8.6686  -8.6686  -4.6940  -4.6940  -4.2696  -4.2696  -1.0528  -1.0528
     0.0718   0.0718

          k = 0.3125 0.3125 0.0000 ( 26611 PWs)   bands (ev):

    -9.7175  -6.3927  -6.3927  -5.7071  -3.1424  -2.4687  -2.4687  -1.7687
     0.9087   1.6122

          k = 0.3125 0.3750 0.0000 ( 26595 PWs)   bands (ev):

    -9.3320  -7.1115  -6.0172  -5.3311  -3.8410  -3.1583  -2.1230  -1.4705
     0.2970   0.9522

          k = 0.3125 0.4375 0.0000 ( 26596 PWs)   bands (ev):

    -8.8777  -7.7664  -5.5757  -4.9014  -4.4645  -3.7907  -1.7377  -1.2521
    -0.1106   0.3764

          k = 0.3125-0.5000 0.0000 ( 26580 PWs)   bands (ev):

    -8.3555  -8.3555  -5.0737  -5.0737  -4.3568  -4.3568  -1.3737  -1.3737
    -0.0519  -0.0519

          k = 0.3750 0.3750 0.0000 ( 26618 PWs)   bands (ev):

    -8.9475  -6.7336  -6.7336  -4.9707  -4.5298  -2.8002  -2.8002  -1.3187
    -0.1722   1.2961

          k = 0.3750 0.4375 0.0000 ( 26586 PWs)   bands (ev):

    -8.4946  -7.3865  -6.2887  -5.2083  -4.4921  -3.4263  -2.3867  -1.5051
    -0.1789   0.6966

          k = 0.3750-0.5000 0.0000 ( 26618 PWs)   bands (ev):

    -7.9739  -7.9739  -5.7783  -5.7783  -3.9932  -3.9932  -1.9346  -1.9346
     0.1841   0.1841

          k = 0.4375 0.4375 0.0000 ( 26638 PWs)   bands (ev):

    -8.0432  -6.9390  -6.9390  -5.8460  -4.0609  -3.0002  -3.0002  -2.0005
     0.1196   1.1034

          k = 0.4375-0.5000 0.0000 ( 26666 PWs)   bands (ev):

    -7.5243  -7.5243  -6.4250  -6.4250  -3.5608  -3.5608  -2.5193  -2.5193
     0.5674   0.5674

          k =-0.5000-0.5000 0.0000 ( 26616 PWs)   bands (ev):

    -7.0077  -7.0077  -7.0077  -7.0077  -3.0670  -3.0670  -3.0670  -3.0670
     1.0388   1.0388

     the Fermi energy is    -1.8631 ev

!    total energy              =     -49.71427493 Ry
     Harris-Foulkes estimate   =     -49.71427493 Ry
     estimated scf accuracy    <          1.1E-09 Ry

     The total energy is the sum of the following terms:

     one-electron contribution =    -114.90888107 Ry
     hartree contribution      =      59.10997634 Ry
     xc contribution           =     -39.69037285 Ry
     ewald contribution        =      45.77484665 Ry
     smearing contrib. (-TS)   =       0.00015600 Ry

     convergence has been achieved in   8 iterations

     Forces acting on atoms (Ry/au):


     negative rho (up, down):  3.405E-06 0.000E+00
     atom    1 type  1   force =     0.00000000    0.00000000   -0.00630381
     atom    2 type  1   force =     0.00000000    0.00000000   -0.00630380
     atom    3 type  1   force =     0.00000000    0.00000000    0.00630380
     atom    4 type  1   force =     0.00000000    0.00000000    0.00630380

     Total force =     0.012608     Total SCF correction =     0.000017


     entering subroutine stress ...


     negative rho (up, down):  3.405E-06 0.000E+00
          total   stress  (Ry/bohr**3)                   (kbar)     P=  -10.86
  -0.00012172   0.00000000   0.00000000        -17.91      0.00      0.00
   0.00000000  -0.00012172   0.00000000          0.00    -17.91      0.00
   0.00000000   0.00000000   0.00002195          0.00      0.00      3.23


     number of scf cycles    =   3
     number of bfgs steps    =   2

     energy   old            =     -49.7140212153 Ry
     energy   new            =     -49.7142749344 Ry

     CASE: energy  _new < energy  _old

     new trust radius        =       0.0138906213 bohr
     new conv_thr            =       0.0000000254 Ry


ATOMIC_POSITIONS (crystal)
Al       0.000000000   0.000000000  -0.000830232
Al       0.500000000   0.500000000  -0.000830232
Al       0.500000000   0.000000000   0.100830232
Al       0.000000000   0.500000000   0.100830232



     Writing output data file Al_100_1_4.save
     NEW-OLD atomic charge density approx. for the potential

     negative rho (up, down):  2.851E-06 0.000E+00

     total cpu time spent up to now is      634.3 secs

     per-process dynamical memory:   255.6 Mb

     Self-consistent Calculation

     iteration #  1     ecut=    80.00 Ry     beta=0.30
     Davidson diagonalization with overlap
     ethr =  1.00E-06,  avg # of iterations =  3.2

     negative rho (up, down):  2.746E-06 0.000E+00

     total cpu time spent up to now is      670.4 secs

     total energy              =     -49.71458367 Ry
     Harris-Foulkes estimate   =     -49.71458714 Ry
     estimated scf accuracy    <       0.00002763 Ry

     iteration #  2     ecut=    80.00 Ry     beta=0.30
     Davidson diagonalization with overlap
     ethr =  2.30E-07,  avg # of iterations =  1.0

     negative rho (up, down):  3.740E-06 0.000E+00

     total cpu time spent up to now is      690.4 secs

     total energy              =     -49.71457668 Ry
     Harris-Foulkes estimate   =     -49.71458422 Ry
     estimated scf accuracy    <       0.00001652 Ry

     iteration #  3     ecut=    80.00 Ry     beta=0.30
     Davidson diagonalization with overlap
     ethr =  1.38E-07,  avg # of iterations =  2.0

     negative rho (up, down):  3.735E-06 0.000E+00

     total cpu time spent up to now is      715.8 secs

     total energy              =     -49.71458050 Ry
     Harris-Foulkes estimate   =     -49.71458053 Ry
     estimated scf accuracy    <       0.00000047 Ry

     iteration #  4     ecut=    80.00 Ry     beta=0.30
     Davidson diagonalization with overlap
     ethr =  3.94E-09,  avg # of iterations =  1.2

     negative rho (up, down):  3.775E-06 0.000E+00

     total cpu time spent up to now is      736.0 secs

     total energy              =     -49.71458048 Ry
     Harris-Foulkes estimate   =     -49.71458051 Ry
     estimated scf accuracy    <       0.00000035 Ry

     iteration #  5     ecut=    80.00 Ry     beta=0.30
     Davidson diagonalization with overlap
     ethr =  2.88E-09,  avg # of iterations =  1.0

     negative rho (up, down):  3.830E-06 0.000E+00

     total cpu time spent up to now is      757.5 secs

     total energy              =     -49.71458039 Ry
     Harris-Foulkes estimate   =     -49.71458049 Ry
     estimated scf accuracy    <       0.00000020 Ry

     iteration #  6     ecut=    80.00 Ry     beta=0.30
     Davidson diagonalization with overlap
     ethr =  1.67E-09,  avg # of iterations =  2.0

     negative rho (up, down):  3.338E-06 0.000E+00

     total cpu time spent up to now is      779.2 secs

     End of self-consistent calculation

          k = 0.0000 0.0000 0.0000 ( 26609 PWs)   bands (ev):

   -11.4474  -7.4573  -3.3906  -3.2804  -3.2804  -1.7837  -1.7837   0.4340
     0.4340   0.8252

          k = 0.0000 0.0625 0.0000 ( 26567 PWs)   bands (ev):

   -11.4119  -7.4222  -3.8170  -3.3573  -3.2476  -1.7502  -1.1877  -0.0482
     0.4661   0.8589

          k = 0.0000 0.1250 0.0000 ( 26551 PWs)   bands (ev):

   -11.3053  -7.3169  -4.6991  -3.2573  -3.1494  -1.6522  -0.8687  -0.1283
     0.5623   0.9594

          k = 0.0000 0.1875 0.0000 ( 26600 PWs)   bands (ev):

   -11.1279  -7.1416  -5.5859  -3.0909  -2.9856  -1.7466  -1.4501   0.7226
     1.0497   1.1235

          k = 0.0000 0.2500 0.0000 ( 26524 PWs)   bands (ev):

   -10.8799  -6.8966  -6.4284  -2.8583  -2.7564  -2.5402  -1.2319   0.9471
     1.0652   1.4348

          k = 0.0000 0.3125 0.0000 ( 26528 PWs)   bands (ev):

   -10.5616  -7.2141  -6.5825  -3.3008  -2.5602  -2.4616  -0.9315   0.4661
     0.6824   1.2356

          k = 0.0000 0.3750 0.0000 ( 26568 PWs)   bands (ev):

   -10.1735  -7.9380  -6.1999  -4.0060  -2.1975  -2.1013  -0.5660  -0.1521
    -0.0051   1.5868

          k = 0.0000 0.4375 0.0000 ( 26588 PWs)   bands (ev):

    -9.7162  -8.5974  -5.7497  -4.6510  -1.7716  -1.6754  -0.7423  -0.6273
    -0.1392   0.8690

          k = 0.0000-0.5000 0.0000 ( 26558 PWs)   bands (ev):

    -9.1906  -9.1906  -5.2329  -5.2329  -1.2851  -1.2851  -1.1841  -1.1841
     0.3435   0.3435

          k = 0.0625 0.0625 0.0000 ( 26537 PWs)   bands (ev):

   -11.3764  -7.3871  -3.7837  -3.7837  -3.3240  -1.1552  -1.1552  -0.0174
    -0.0174   0.8921

          k = 0.0625 0.1250 0.0000 ( 26552 PWs)   bands (ev):

   -11.2698  -7.2818  -4.6654  -3.6841  -3.2241  -1.0697  -0.8264  -0.1050
     0.0811   0.9897

          k = 0.0625 0.1875 0.0000 ( 26573 PWs)   bands (ev):

   -11.0925  -7.1066  -5.5519  -3.5184  -3.0578  -1.6951  -0.8778   0.2095
     1.0877   1.1340

          k = 0.0625 0.2500 0.0000 ( 26585 PWs)   bands (ev):

   -10.8445  -6.8617  -6.3942  -3.2876  -2.8255  -2.5019  -0.6474   0.3716
     0.8827   1.3690

          k = 0.0625 0.3125 0.0000 ( 26555 PWs)   bands (ev):

   -10.5263  -7.1797  -6.5477  -3.2748  -2.9774  -2.5279  -0.3500   0.1649
     0.3252   1.0567

          k = 0.0625 0.3750 0.0000 ( 26555 PWs)   bands (ev):

   -10.1383  -7.9034  -6.1653  -3.9734  -2.6197  -2.1660  -0.5159  -0.1581
     0.0111   1.2531

          k = 0.0625 0.4375 0.0000 ( 26574 PWs)   bands (ev):

    -9.6811  -8.5626  -5.7153  -4.6175  -2.1907  -1.7416  -1.1374  -0.7230
     0.4326   1.4183

          k = 0.0625-0.5000 0.0000 ( 26598 PWs)   bands (ev):

    -9.1556  -9.1556  -5.1989  -5.1989  -1.6962  -1.6962  -1.2581  -1.2581
     0.9085   0.9085

          k = 0.1250 0.1250 0.0000 ( 26551 PWs)   bands (ev):

   -11.1634  -7.1766  -4.5646  -4.5646  -3.1244  -0.7570  -0.7570   0.0105
     0.0105   1.0643

          k = 0.1250 0.1875 0.0000 ( 26552 PWs)   bands (ev):

   -10.9861  -7.0016  -5.4501  -4.3967  -2.9587  -1.5961  -0.6059   0.1735
     0.8133   1.1862

          k = 0.1250 0.2500 0.0000 ( 26563 PWs)   bands (ev):

   -10.7384  -6.7571  -6.2916  -4.1623  -2.7273  -2.4034  -0.4117   0.0602
     0.4025   1.5763

          k = 0.1250 0.3125 0.0000 ( 26555 PWs)   bands (ev):

   -10.4204  -7.0765  -6.4436  -3.8644  -3.1592  -2.4312  -0.6791  -0.2226
     0.6954   0.9817

          k = 0.1250 0.3750 0.0000 ( 26573 PWs)   bands (ev):

   -10.0327  -7.7996  -6.0617  -3.8828  -3.4766  -2.0720  -1.3649  -0.2657
     0.7181   1.0501

          k = 0.1250 0.4375 0.0000 ( 26557 PWs)   bands (ev):

    -9.5759  -8.4583  -5.6125  -4.5176  -3.0514  -1.9907  -1.6531  -0.6829
     0.9440   1.4620

          k = 0.1250-0.5000 0.0000 ( 26554 PWs)   bands (ev):

    -9.0508  -9.0508  -5.0971  -5.0971  -2.5535  -2.5535  -1.1820  -1.1820
     1.3734   1.3734

          k = 0.1875 0.1875 0.0000 ( 26561 PWs)   bands (ev):

   -10.8091  -6.8270  -5.2806  -5.2806  -2.7939  -1.4391  -1.4391   0.0131
     1.3484   1.3484

          k = 0.1875 0.2500 0.0000 ( 26541 PWs)   bands (ev):

   -10.5617  -6.5830  -6.1208  -5.0438  -2.5643  -2.2419  -1.2263  -0.7834
     1.5742   1.7782

          k = 0.1875 0.3125 0.0000 ( 26566 PWs)   bands (ev):

   -10.2441  -6.9046  -6.2702  -4.7406  -2.9971  -2.2714  -1.5321  -0.9715
     1.0982   1.8620

          k = 0.1875 0.3750 0.0000 ( 26569 PWs)   bands (ev):

    -9.8569  -7.6267  -5.8894  -4.3754  -3.6923  -2.2235  -1.9184  -0.7304
     0.5426   1.7059

          k = 0.1875 0.4375 0.0000 ( 26566 PWs)   bands (ev):

    -9.4007  -8.2845  -5.4416  -4.3608  -3.9112  -2.8536  -1.5132  -0.7282
     0.3465   1.1188

          k = 0.1875-0.5000 0.0000 ( 26550 PWs)   bands (ev):

    -8.8763  -8.8763  -4.9287  -4.9287  -3.4194  -3.4194  -1.0804  -1.0804
     0.6296   0.6296

          k = 0.2500 0.2500 0.0000 ( 26595 PWs)   bands (ev):

   -10.3146  -6.3398  -5.8821  -5.8821  -2.3380  -2.0191  -2.0191  -1.5904
     2.0214   2.0215

          k = 0.2500 0.3125 0.0000 ( 26582 PWs)   bands (ev):

    -9.9976  -6.6643  -6.0282  -5.5761  -2.7687  -2.3451  -2.0515  -1.7403
     1.3113   1.5998

          k = 0.2500 0.3750 0.0000 ( 26571 PWs)   bands (ev):

    -9.6112  -7.3850  -5.6490  -5.2039  -3.4643  -3.0410  -1.7127  -1.4207
     0.6753   0.9517

          k = 0.2500 0.4375 0.0000 ( 26591 PWs)   bands (ev):

    -9.1558  -8.0416  -5.2042  -4.7712  -4.0951  -3.6739  -1.3466  -1.1191
     0.1806   0.4002

          k = 0.2500-0.5000 0.0000 ( 26572 PWs)   bands (ev):

    -8.6323  -8.6323  -4.7047  -4.7047  -4.2321  -4.2321  -1.0597  -1.0597
     0.0539   0.0539

          k = 0.3125 0.3125 0.0000 ( 26611 PWs)   bands (ev):

    -9.6814  -6.3561  -6.3561  -5.7183  -3.1044  -2.4784  -2.4784  -1.7794
     0.8943   1.5972

          k = 0.3125 0.3750 0.0000 ( 26595 PWs)   bands (ev):

    -9.2958  -7.0750  -5.9807  -5.3423  -3.8029  -3.1681  -2.1323  -1.4799
     0.2815   0.9368

          k = 0.3125 0.4375 0.0000 ( 26596 PWs)   bands (ev):

    -8.8415  -7.7300  -5.5394  -4.9121  -4.4271  -3.8003  -1.7463  -1.2591
    -0.1284   0.3602

          k = 0.3125-0.5000 0.0000 ( 26580 PWs)   bands (ev):

    -8.3192  -8.3192  -5.0389  -5.0389  -4.3648  -4.3648  -1.3807  -1.3807
    -0.0696  -0.0696

          k = 0.3750 0.3750 0.0000 ( 26618 PWs)   bands (ev):

    -8.9113  -6.6971  -6.6971  -4.9813  -4.4924  -2.8098  -2.8098  -1.3256
    -0.1901   1.2809

          k = 0.3750 0.4375 0.0000 ( 26586 PWs)   bands (ev):

    -8.4583  -7.3501  -6.2523  -5.1737  -4.5000  -3.4360  -2.3960  -1.5120
    -0.1966   0.6810

          k = 0.3750-0.5000 0.0000 ( 26618 PWs)   bands (ev):

    -7.9376  -7.9376  -5.7420  -5.7420  -4.0028  -4.0028  -1.9431  -1.9431
     0.1678   0.1678

          k = 0.4375 0.4375 0.0000 ( 26638 PWs)   bands (ev):

    -8.0069  -6.9026  -6.9026  -5.8098  -4.0705  -3.0098  -3.0098  -2.0089
     0.1033   1.0881

          k = 0.4375-0.5000 0.0000 ( 26666 PWs)   bands (ev):

    -7.4880  -7.4880  -6.3886  -6.3886  -3.5705  -3.5705  -2.5285  -2.5285
     0.5518   0.5518

          k =-0.5000-0.5000 0.0000 ( 26616 PWs)   bands (ev):

    -6.9712  -6.9712  -6.9712  -6.9712  -3.0766  -3.0766  -3.0766  -3.0766
     1.0234   1.0234

     the Fermi energy is    -1.8616 ev

!    total energy              =     -49.71458043 Ry
     Harris-Foulkes estimate   =     -49.71458045 Ry
     estimated scf accuracy    <       0.00000002 Ry

     The total energy is the sum of the following terms:

     one-electron contribution =    -114.59756903 Ry
     hartree contribution      =      58.95640705 Ry
     xc contribution           =     -39.68325581 Ry
     ewald contribution        =      45.60968765 Ry
     smearing contrib. (-TS)   =       0.00014971 Ry

     convergence has been achieved in   6 iterations

     Forces acting on atoms (Ry/au):


     negative rho (up, down):  3.338E-06 0.000E+00
     atom    1 type  1   force =     0.00000000    0.00000000   -0.00470823
     atom    2 type  1   force =     0.00000000    0.00000000   -0.00470823
     atom    3 type  1   force =     0.00000000    0.00000000    0.00470823
     atom    4 type  1   force =     0.00000000    0.00000000    0.00470823

     Total force =     0.009416     Total SCF correction =     0.000133


     entering subroutine stress ...


     negative rho (up, down):  3.338E-06 0.000E+00
          total   stress  (Ry/bohr**3)                   (kbar)     P=  -11.38
  -0.00012420   0.00000000   0.00000000        -18.27      0.00      0.00
   0.00000000  -0.00012420   0.00000000          0.00    -18.27      0.00
   0.00000000   0.00000000   0.00001641          0.00      0.00      2.41


     number of scf cycles    =   4
     number of bfgs steps    =   3

     energy   old            =     -49.7142749344 Ry
     energy   new            =     -49.7145804330 Ry

     CASE: energy  _new < energy  _old

     new trust radius        =       0.0208359320 bohr
     new conv_thr            =       0.0000000305 Ry


ATOMIC_POSITIONS (crystal)
Al       0.000000000   0.000000000  -0.001378185
Al       0.500000000   0.500000000  -0.001378186
Al       0.500000000   0.000000000   0.101378185
Al       0.000000000   0.500000000   0.101378185



     Writing output data file Al_100_1_4.save
     NEW-OLD atomic charge density approx. for the potential

     negative rho (up, down):  2.952E-06 0.000E+00

     total cpu time spent up to now is      790.1 secs

     per-process dynamical memory:   258.8 Mb

     Self-consistent Calculation

     iteration #  1     ecut=    80.00 Ry     beta=0.30
     Davidson diagonalization with overlap
     ethr =  1.00E-06,  avg # of iterations =  4.1

     negative rho (up, down):  2.470E-06 0.000E+00

     total cpu time spent up to now is      828.3 secs

     total energy              =     -49.71488279 Ry
     Harris-Foulkes estimate   =     -49.71489016 Ry
     estimated scf accuracy    <       0.00005895 Ry

     iteration #  2     ecut=    80.00 Ry     beta=0.30
     Davidson diagonalization with overlap
     ethr =  4.91E-07,  avg # of iterations =  1.1

     negative rho (up, down):  3.029E-06 0.000E+00

     total cpu time spent up to now is      848.4 secs

     total energy              =     -49.71486826 Ry
     Harris-Foulkes estimate   =     -49.71488406 Ry
     estimated scf accuracy    <       0.00003496 Ry

     iteration #  3     ecut=    80.00 Ry     beta=0.30
     Davidson diagonalization with overlap
     ethr =  2.91E-07,  avg # of iterations =  2.0

     negative rho (up, down):  3.044E-06 0.000E+00

     total cpu time spent up to now is      871.3 secs

     total energy              =     -49.71487599 Ry
     Harris-Foulkes estimate   =     -49.71487611 Ry
     estimated scf accuracy    <       0.00000086 Ry

     iteration #  4     ecut=    80.00 Ry     beta=0.30
     Davidson diagonalization with overlap
     ethr =  7.15E-09,  avg # of iterations =  1.6

     negative rho (up, down):  2.855E-06 0.000E+00

     total cpu time spent up to now is      891.4 secs

     total energy              =     -49.71487608 Ry
     Harris-Foulkes estimate   =     -49.71487606 Ry
     estimated scf accuracy    <       0.00000053 Ry

     iteration #  5     ecut=    80.00 Ry     beta=0.30
     Davidson diagonalization with overlap
     ethr =  4.39E-09,  avg # of iterations =  1.0

     negative rho (up, down):  2.742E-06 0.000E+00

     total cpu time spent up to now is      910.4 secs

     total energy              =     -49.71487586 Ry
     Harris-Foulkes estimate   =     -49.71487609 Ry
     estimated scf accuracy    <       0.00000047 Ry

     iteration #  6     ecut=    80.00 Ry     beta=0.30
     Davidson diagonalization with overlap
     ethr =  3.91E-09,  avg # of iterations =  2.0

     negative rho (up, down):  3.234E-06 0.000E+00

     total cpu time spent up to now is      930.9 secs

     End of self-consistent calculation

          k = 0.0000 0.0000 0.0000 ( 26609 PWs)   bands (ev):

   -11.3944  -7.4745  -3.4092  -3.2219  -3.2219  -1.7344  -1.7344   0.4127
     0.4127   0.7998

          k = 0.0000 0.0625 0.0000 ( 26567 PWs)   bands (ev):

   -11.3588  -7.4393  -3.7605  -3.3758  -3.1892  -1.7012  -1.1366  -0.0655
     0.4447   0.8337

          k = 0.0000 0.1250 0.0000 ( 26551 PWs)   bands (ev):

   -11.2523  -7.3340  -4.6439  -3.2757  -3.0909  -1.6052  -0.8822  -0.0766
     0.5409   0.9345

          k = 0.0000 0.1875 0.0000 ( 26600 PWs)   bands (ev):

   -11.0748  -7.1587  -5.5313  -3.1092  -2.9271  -1.7638  -1.3986   0.7012
     1.0995   1.0999

          k = 0.0000 0.2500 0.0000 ( 26524 PWs)   bands (ev):

   -10.8267  -6.9137  -6.3742  -2.8764  -2.6978  -2.5575  -1.1799   0.9255
     1.0579   1.4942

          k = 0.0000 0.3125 0.0000 ( 26528 PWs)   bands (ev):

   -10.5084  -7.1602  -6.5995  -3.3177  -2.5781  -2.4029  -0.8797   0.4546
     0.7417   1.2139

          k = 0.0000 0.3750 0.0000 ( 26568 PWs)   bands (ev):

   -10.1203  -7.8843  -6.2169  -4.0229  -2.2150  -2.0425  -0.5141  -0.1660
     0.0541   1.5651

          k = 0.0000 0.4375 0.0000 ( 26588 PWs)   bands (ev):

    -9.6629  -8.5439  -5.7666  -4.6679  -1.7887  -1.6166  -0.7577  -0.5682
    -0.0869   0.9214

          k = 0.0000-0.5000 0.0000 ( 26558 PWs)   bands (ev):

    -9.1371  -9.1371  -5.2498  -5.2498  -1.3014  -1.3014  -1.1251  -1.1251
     0.3962   0.3962

          k = 0.0625 0.0625 0.0000 ( 26537 PWs)   bands (ev):

   -11.3233  -7.4042  -3.7273  -3.7273  -3.3425  -1.1045  -1.1045  -0.0345
    -0.0345   0.8670

          k = 0.0625 0.1250 0.0000 ( 26552 PWs)   bands (ev):

   -11.2168  -7.2989  -4.6103  -3.6277  -3.2425  -1.0311  -0.8292  -0.0637
     0.0745   0.9653

          k = 0.0625 0.1875 0.0000 ( 26573 PWs)   bands (ev):

   -11.0394  -7.1237  -5.4973  -3.4620  -3.0761  -1.7120  -0.8244   0.1923
     1.1148   1.1396

          k = 0.0625 0.2500 0.0000 ( 26585 PWs)   bands (ev):

   -10.7913  -6.8788  -6.3400  -3.2319  -2.8436  -2.5175  -0.5943   0.3570
     0.9352   1.3524

          k = 0.0625 0.3125 0.0000 ( 26555 PWs)   bands (ev):

   -10.4731  -7.1258  -6.5648  -3.2913  -2.9206  -2.5457  -0.2968   0.2227
     0.3150   1.0326

          k = 0.0625 0.3750 0.0000 ( 26555 PWs)   bands (ev):

   -10.0850  -7.8497  -6.1823  -3.9904  -2.5623  -2.1834  -0.4580  -0.1711
     0.0645   1.2300

          k = 0.0625 0.4375 0.0000 ( 26574 PWs)   bands (ev):

    -9.6278  -8.5091  -5.7322  -4.6344  -2.1332  -1.7585  -1.0798  -0.7380
     0.4864   1.4705

          k = 0.0625-0.5000 0.0000 ( 26598 PWs)   bands (ev):

    -9.1022  -9.1022  -5.2158  -5.2158  -1.6387  -1.6387  -1.2743  -1.2743
     0.9624   0.9624

          k = 0.1250 0.1250 0.0000 ( 26551 PWs)   bands (ev):

   -11.1103  -7.1938  -4.5094  -4.5094  -3.1428  -0.7738  -0.7738   0.0641
     0.0641   1.0451

          k = 0.1250 0.1875 0.0000 ( 26552 PWs)   bands (ev):

   -10.9330  -7.0187  -5.3955  -4.3415  -2.9769  -1.6122  -0.6217   0.2271
     0.8608   1.2387

          k = 0.1250 0.2500 0.0000 ( 26563 PWs)   bands (ev):

   -10.6852  -6.7742  -6.2374  -4.1074  -2.7453  -2.4190  -0.4263   0.1171
     0.4562   1.5568

          k = 0.1250 0.3125 0.0000 ( 26555 PWs)   bands (ev):

   -10.3672  -7.0225  -6.4606  -3.8111  -3.1732  -2.4488  -0.6220  -0.2346
     0.7494   0.9582

          k = 0.1250 0.3750 0.0000 ( 26573 PWs)   bands (ev):

    -9.9795  -7.7459  -6.0787  -3.8994  -3.4204  -2.0892  -1.3080  -0.2758
     0.6918   1.1043

          k = 0.1250 0.4375 0.0000 ( 26557 PWs)   bands (ev):

    -9.5226  -8.4047  -5.6294  -4.5346  -2.9948  -1.9339  -1.6696  -0.6963
     0.9204   1.5164

          k = 0.1250-0.5000 0.0000 ( 26554 PWs)   bands (ev):

    -8.9974  -8.9974  -5.1140  -5.1140  -2.4969  -2.4969  -1.1974  -1.1974
     1.3513   1.3513

          k = 0.1875 0.1875 0.0000 ( 26561 PWs)   bands (ev):

   -10.7560  -6.8441  -5.2260  -5.2260  -2.8119  -1.4546  -1.4546   0.0698
     1.4012   1.4012

          k = 0.1875 0.2500 0.0000 ( 26541 PWs)   bands (ev):

   -10.5085  -6.6000  -6.0666  -4.9893  -2.5820  -2.2574  -1.2412  -0.7265
     1.6272   1.7573

          k = 0.1875 0.3125 0.0000 ( 26566 PWs)   bands (ev):

   -10.1909  -6.8506  -6.2872  -4.6864  -3.0122  -2.2887  -1.4754  -0.9851
     1.0757   1.9154

          k = 0.1875 0.3750 0.0000 ( 26569 PWs)   bands (ev):

    -9.8036  -7.5730  -5.9064  -4.3235  -3.7052  -2.1670  -1.9351  -0.7415
     0.5171   1.6847

          k = 0.1875 0.4375 0.0000 ( 26566 PWs)   bands (ev):

    -9.3474  -8.2309  -5.4586  -4.3774  -3.8555  -2.7973  -1.5289  -0.7384
     0.3198   1.0968

          k = 0.1875-0.5000 0.0000 ( 26550 PWs)   bands (ev):

    -8.8228  -8.8228  -4.9458  -4.9458  -3.3631  -3.3631  -1.0941  -1.0941
     0.6059   0.6059

          k = 0.2500 0.2500 0.0000 ( 26595 PWs)   bands (ev):

   -10.2614  -6.3569  -5.8280  -5.8280  -2.3554  -2.0342  -2.0342  -1.5338
     1.9996   1.9996

          k = 0.2500 0.3125 0.0000 ( 26582 PWs)   bands (ev):

    -9.9444  -6.6104  -6.0452  -5.5220  -2.7839  -2.2888  -2.0683  -1.7548
     1.2890   1.5787

          k = 0.2500 0.3750 0.0000 ( 26571 PWs)   bands (ev):

    -9.5579  -7.3313  -5.6660  -5.1502  -3.4792  -2.9849  -1.7285  -1.4339
     0.6517   0.9298

          k = 0.2500 0.4375 0.0000 ( 26591 PWs)   bands (ev):

    -9.1024  -7.9880  -5.2213  -4.7203  -4.1073  -3.6178  -1.3604  -1.1299
     0.1543   0.3765

          k = 0.2500-0.5000 0.0000 ( 26572 PWs)   bands (ev):

    -8.5788  -8.5788  -4.7213  -4.7213  -4.1766  -4.1766  -1.0701  -1.0701
     0.0270   0.0270

          k = 0.3125 0.3125 0.0000 ( 26611 PWs)   bands (ev):

    -9.6281  -6.3022  -6.3022  -5.7353  -3.0483  -2.4933  -2.4933  -1.7952
     0.8724   1.5747

          k = 0.3125 0.3750 0.0000 ( 26595 PWs)   bands (ev):

    -9.2425  -7.0212  -5.9268  -5.3595  -3.7469  -3.1831  -2.1466  -1.4938
     0.2579   0.9140

          k = 0.3125 0.4375 0.0000 ( 26596 PWs)   bands (ev):

    -8.7881  -7.6764  -5.4859  -4.9286  -4.3718  -3.8151  -1.7594  -1.2695
    -0.1554   0.3362

          k = 0.3125-0.5000 0.0000 ( 26580 PWs)   bands (ev):

    -8.2657  -8.2657  -4.9886  -4.9886  -4.3765  -4.3765  -1.3914  -1.3914
    -0.0961  -0.0961

          k = 0.3750 0.3750 0.0000 ( 26618 PWs)   bands (ev):

    -8.8579  -6.6434  -6.6434  -4.9979  -4.4372  -2.8246  -2.8246  -1.3361
    -0.2171   1.2581

          k = 0.3750 0.4375 0.0000 ( 26586 PWs)   bands (ev):

    -8.4049  -7.2964  -6.1986  -5.1237  -4.5114  -3.4510  -2.4102  -1.5227
    -0.2233   0.6579

          k = 0.3750-0.5000 0.0000 ( 26618 PWs)   bands (ev):

    -7.8840  -7.8840  -5.6888  -5.6888  -4.0175  -4.0175  -1.9561  -1.9561
     0.1436   0.1436

          k = 0.4375 0.4375 0.0000 ( 26638 PWs)   bands (ev):

    -7.9534  -6.8490  -6.8490  -5.7566  -4.0851  -3.0246  -3.0246  -2.0219
     0.0790   1.0652

          k = 0.4375-0.5000 0.0000 ( 26666 PWs)   bands (ev):

    -7.4344  -7.4344  -6.3350  -6.3350  -3.5854  -3.5854  -2.5427  -2.5427
     0.5286   0.5286

          k =-0.5000-0.5000 0.0000 ( 26616 PWs)   bands (ev):

    -6.9176  -6.9176  -6.9176  -6.9176  -3.0914  -3.0914  -3.0914  -3.0914
     1.0005   1.0005

     the Fermi energy is    -1.8595 ev

!    total energy              =     -49.71487602 Ry
     Harris-Foulkes estimate   =     -49.71487597 Ry
     estimated scf accuracy    <       0.00000002 Ry

     The total energy is the sum of the following terms:

     one-electron contribution =    -114.13106605 Ry
     hartree contribution      =      58.72679680 Ry
     xc contribution           =     -39.67280168 Ry
     ewald contribution        =      45.36209785 Ry
     smearing contrib. (-TS)   =       0.00009707 Ry

     convergence has been achieved in   6 iterations

     Forces acting on atoms (Ry/au):


     negative rho (up, down):  3.234E-06 0.000E+00
     atom    1 type  1   force =     0.00000000    0.00000000   -0.00241753
     atom    2 type  1   force =     0.00000000    0.00000000   -0.00241752
     atom    3 type  1   force =     0.00000000    0.00000000    0.00241753
     atom    4 type  1   force =     0.00000000    0.00000000    0.00241753

     Total force =     0.004835     Total SCF correction =     0.000134


     entering subroutine stress ...


     negative rho (up, down):  3.234E-06 0.000E+00
          total   stress  (Ry/bohr**3)                   (kbar)     P=  -12.11
  -0.00012766   0.00000000   0.00000000        -18.78      0.00      0.00
   0.00000000  -0.00012766   0.00000000          0.00    -18.78      0.00
   0.00000000   0.00000000   0.00000845          0.00      0.00      1.24


     number of scf cycles    =   5
     number of bfgs steps    =   4

     energy   old            =     -49.7145804330 Ry
     energy   new            =     -49.7148760171 Ry

     CASE: energy  _new < energy  _old

     new trust radius        =       0.0219895009 bohr
     new conv_thr            =       0.0000000242 Ry


ATOMIC_POSITIONS (crystal)
Al       0.000000000   0.000000000  -0.001956475
Al       0.500000000   0.500000000  -0.001956476
Al       0.500000000   0.000000000   0.101956476
Al       0.000000000   0.500000000   0.101956476



     Writing output data file Al_100_1_4.save
     NEW-OLD atomic charge density approx. for the potential

     negative rho (up, down):  2.949E-06 0.000E+00

     total cpu time spent up to now is      941.9 secs

     per-process dynamical memory:   258.8 Mb

     Self-consistent Calculation

     iteration #  1     ecut=    80.00 Ry     beta=0.30
     Davidson diagonalization with overlap
     ethr =  1.00E-06,  avg # of iterations =  4.3

     negative rho (up, down):  2.373E-06 0.000E+00

     total cpu time spent up to now is      979.8 secs

     total energy              =     -49.71499590 Ry
     Harris-Foulkes estimate   =     -49.71500428 Ry
     estimated scf accuracy    <       0.00006817 Ry

     iteration #  2     ecut=    80.00 Ry     beta=0.30
     Davidson diagonalization with overlap
     ethr =  5.68E-07,  avg # of iterations =  1.0

     negative rho (up, down):  2.925E-06 0.000E+00

     total cpu time spent up to now is      999.2 secs

     total energy              =     -49.71497916 Ry
     Harris-Foulkes estimate   =     -49.71499688 Ry
     estimated scf accuracy    <       0.00003998 Ry

     iteration #  3     ecut=    80.00 Ry     beta=0.30
     Davidson diagonalization with overlap
     ethr =  3.33E-07,  avg # of iterations =  2.0

     negative rho (up, down):  2.920E-06 0.000E+00

     total cpu time spent up to now is     1023.0 secs

     total energy              =     -49.71498791 Ry
     Harris-Foulkes estimate   =     -49.71498787 Ry
     estimated scf accuracy    <       0.00000082 Ry

     iteration #  4     ecut=    80.00 Ry     beta=0.30
     Davidson diagonalization with overlap
     ethr =  6.84E-09,  avg # of iterations =  1.9

     negative rho (up, down):  3.232E-06 0.000E+00

     total cpu time spent up to now is     1044.4 secs

     total energy              =     -49.71498777 Ry
     Harris-Foulkes estimate   =     -49.71498799 Ry
     estimated scf accuracy    <       0.00000096 Ry

     iteration #  5     ecut=    80.00 Ry     beta=0.30
     Davidson diagonalization with overlap
     ethr =  6.84E-09,  avg # of iterations =  1.0

     negative rho (up, down):  5.541E-06 0.000E+00

     total cpu time spent up to now is     1065.6 secs

     total energy              =     -49.71498768 Ry
     Harris-Foulkes estimate   =     -49.71498780 Ry
     estimated scf accuracy    <       0.00000045 Ry

     iteration #  6     ecut=    80.00 Ry     beta=0.30
     Davidson diagonalization with overlap
     ethr =  3.77E-09,  avg # of iterations =  2.0

     negative rho (up, down):  6.301E-06 0.000E+00

     total cpu time spent up to now is     1087.6 secs

     total energy              =     -49.71498777 Ry
     Harris-Foulkes estimate   =     -49.71498774 Ry
     estimated scf accuracy    <       0.00000006 Ry

     iteration #  7     ecut=    80.00 Ry     beta=0.30
     Davidson diagonalization with overlap
     ethr =  4.83E-10,  avg # of iterations =  2.0

     negative rho (up, down):  5.201E-06 0.000E+00

     total cpu time spent up to now is     1110.9 secs

     total energy              =     -49.71498778 Ry
     Harris-Foulkes estimate   =     -49.71498778 Ry
     estimated scf accuracy    <       0.00000011 Ry

     iteration #  8     ecut=    80.00 Ry     beta=0.30
     Davidson diagonalization with overlap
     ethr =  4.83E-10,  avg # of iterations =  1.0

     negative rho (up, down):  4.080E-06 0.000E+00

     total cpu time spent up to now is     1134.7 secs

     total energy              =     -49.71498773 Ry
     Harris-Foulkes estimate   =     -49.71498778 Ry
     estimated scf accuracy    <       0.00000007 Ry

     iteration #  9     ecut=    80.00 Ry     beta=0.30
     Davidson diagonalization with overlap
     ethr =  4.83E-10,  avg # of iterations =  2.0

     negative rho (up, down):  3.099E-06 0.000E+00

     total cpu time spent up to now is     1155.0 secs

     End of self-consistent calculation

          k = 0.0000 0.0000 0.0000 ( 26609 PWs)   bands (ev):

   -11.3401  -7.4935  -3.4288  -3.1623  -3.1623  -1.6843  -1.6843   0.3893
     0.3893   0.7720

          k = 0.0000 0.0625 0.0000 ( 26567 PWs)   bands (ev):

   -11.3046  -7.4584  -3.7030  -3.3954  -3.1295  -1.6514  -1.0846  -0.0846
     0.4214   0.8060

          k = 0.0000 0.1250 0.0000 ( 26551 PWs)   bands (ev):

   -11.1980  -7.3530  -4.5876  -3.2952  -3.0312  -1.5581  -0.8963  -0.0242
     0.5175   0.9071

          k = 0.0000 0.1875 0.0000 ( 26600 PWs)   bands (ev):

   -11.0205  -7.1777  -5.4755  -3.1285  -2.8674  -1.7830  -1.3458   0.6777
     1.0729   1.1501

          k = 0.0000 0.2500 0.0000 ( 26524 PWs)   bands (ev):

   -10.7724  -6.9326  -6.3188  -2.8956  -2.6380  -2.5768  -1.1267   0.9020
     1.0498   1.5546

          k = 0.0000 0.3125 0.0000 ( 26528 PWs)   bands (ev):

   -10.4540  -7.1051  -6.6184  -3.3366  -2.5970  -2.3431  -0.8266   0.4423
     0.8021   1.1903

          k = 0.0000 0.3750 0.0000 ( 26568 PWs)   bands (ev):

   -10.0658  -7.8294  -6.2357  -4.0416  -2.2336  -1.9826  -0.4608  -0.1809
     0.1144   1.5418

          k = 0.0000 0.4375 0.0000 ( 26588 PWs)   bands (ev):

    -9.6084  -8.4891  -5.7854  -4.6866  -1.8067  -1.5566  -0.7741  -0.5080
    -0.0333   0.9750

          k = 0.0000-0.5000 0.0000 ( 26558 PWs)   bands (ev):

    -9.0825  -9.0825  -5.2685  -5.2685  -1.3188  -1.3188  -1.0650  -1.0650
     0.4501   0.4501

          k = 0.0625 0.0625 0.0000 ( 26537 PWs)   bands (ev):

   -11.2690  -7.4233  -3.6698  -3.6698  -3.3620  -1.0531  -1.0531  -0.0532
    -0.0532   0.8394

          k = 0.0625 0.1250 0.0000 ( 26552 PWs)   bands (ev):

   -11.1625  -7.3179  -4.5539  -3.5702  -3.2619  -1.0022  -0.8231  -0.0361
     0.0806   0.9384

          k = 0.0625 0.1875 0.0000 ( 26573 PWs)   bands (ev):

   -10.9851  -7.1427  -5.4416  -3.4046  -3.0954  -1.7307  -0.7698   0.1732
     1.0920   1.1921

          k = 0.0625 0.2500 0.0000 ( 26585 PWs)   bands (ev):

   -10.7370  -6.8977  -6.2846  -3.1755  -2.8627  -2.5346  -0.5399   0.3407
     0.9863   1.3347

          k = 0.0625 0.3125 0.0000 ( 26555 PWs)   bands (ev):

   -10.4187  -7.0707  -6.5837  -3.3099  -2.8625  -2.5646  -0.2423   0.2816
     0.3039   1.0066

          k = 0.0625 0.3750 0.0000 ( 26555 PWs)   bands (ev):

   -10.0306  -7.7948  -6.2012  -4.0092  -2.5038  -2.2019  -0.3990  -0.1849
     0.1192   1.2049

          k = 0.0625 0.4375 0.0000 ( 26574 PWs)   bands (ev):

    -9.5733  -8.4543  -5.7511  -4.6531  -2.0747  -1.7764  -1.0209  -0.7540
     0.5414   1.5234

          k = 0.0625-0.5000 0.0000 ( 26598 PWs)   bands (ev):

    -9.0476  -9.0476  -5.2345  -5.2345  -1.5800  -1.5800  -1.2915  -1.2915
     1.0176   1.0176

          k = 0.1250 0.1250 0.0000 ( 26551 PWs)   bands (ev):

   -11.0560  -7.2128  -4.4531  -4.4531  -3.1621  -0.7924  -0.7924   0.1187
     0.1187   1.0225

          k = 0.1250 0.1875 0.0000 ( 26552 PWs)   bands (ev):

   -10.8787  -7.0377  -5.3398  -4.2853  -2.9961  -1.6300  -0.6394   0.2817
     0.9052   1.2919

          k = 0.1250 0.2500 0.0000 ( 26563 PWs)   bands (ev):

   -10.6309  -6.7931  -6.1820  -4.0514  -2.7643  -2.4364  -0.4426   0.1751
     0.5110   1.5362

          k = 0.1250 0.3125 0.0000 ( 26555 PWs)   bands (ev):

   -10.3128  -6.9674  -6.4795  -3.7574  -3.1881  -2.4675  -0.5636  -0.2479
     0.8044   0.9332

          k = 0.1250 0.3750 0.0000 ( 26573 PWs)   bands (ev):

    -9.9250  -7.6910  -6.0975  -3.9181  -3.3630  -2.1075  -1.2498  -0.2868
     0.6635   1.1597

          k = 0.1250 0.4375 0.0000 ( 26557 PWs)   bands (ev):

    -9.4681  -8.3500  -5.6482  -4.5535  -2.9371  -1.8760  -1.6871  -0.7106
     0.8947   1.5721

          k = 0.1250-0.5000 0.0000 ( 26554 PWs)   bands (ev):

    -8.9427  -8.9427  -5.1328  -5.1328  -2.4391  -2.4391  -1.2138  -1.2138
     1.3272   1.3272

          k = 0.1875 0.1875 0.0000 ( 26561 PWs)   bands (ev):

   -10.7017  -6.8630  -5.1703  -5.1703  -2.8310  -1.4720  -1.4720   0.1276
     1.4547   1.4547

          k = 0.1875 0.2500 0.0000 ( 26541 PWs)   bands (ev):

   -10.4541  -6.6190  -6.0113  -4.9337  -2.6008  -2.2746  -1.2578  -0.6684
     1.6811   1.7351

          k = 0.1875 0.3125 0.0000 ( 26566 PWs)   bands (ev):

   -10.1365  -6.7955  -6.3061  -4.6312  -3.0290  -2.3071  -1.4175  -1.0004
     1.0518   1.9697

          k = 0.1875 0.3750 0.0000 ( 26569 PWs)   bands (ev):

    -9.7492  -7.5181  -5.9252  -4.2716  -3.7188  -2.1093  -1.9529  -0.7540
     0.4899   1.6614

          k = 0.1875 0.4375 0.0000 ( 26566 PWs)   bands (ev):

    -9.2928  -8.1762  -5.4775  -4.3961  -3.7984  -2.7397  -1.5455  -0.7495
     0.2909   1.0728

          k = 0.1875-0.5000 0.0000 ( 26550 PWs)   bands (ev):

    -8.7682  -8.7682  -4.9648  -4.9648  -3.3057  -3.3057  -1.1087  -1.1087
     0.5801   0.5801

          k = 0.2500 0.2500 0.0000 ( 26595 PWs)   bands (ev):

   -10.2070  -6.3758  -5.7726  -5.7726  -2.3738  -2.0511  -2.0511  -1.4760
     1.9764   1.9765

          k = 0.2500 0.3125 0.0000 ( 26582 PWs)   bands (ev):

    -9.8900  -6.5553  -6.0641  -5.4668  -2.8008  -2.2312  -2.0862  -1.7710
     1.2654   1.5556

          k = 0.2500 0.3750 0.0000 ( 26571 PWs)   bands (ev):

    -9.5034  -7.2764  -5.6850  -5.0955  -3.4957  -2.9275  -1.7453  -1.4488
     0.6267   0.9058

          k = 0.2500 0.4375 0.0000 ( 26591 PWs)   bands (ev):

    -9.0478  -7.9333  -5.2404  -4.6695  -4.1199  -3.5605  -1.3752  -1.1421
     0.1264   0.3508

          k = 0.2500-0.5000 0.0000 ( 26572 PWs)   bands (ev):

    -8.5242  -8.5242  -4.7399  -4.7399  -4.1198  -4.1198  -1.0812  -1.0812
    -0.0020  -0.0020

          k = 0.3125 0.3125 0.0000 ( 26611 PWs)   bands (ev):

    -9.5736  -6.2471  -6.2471  -5.7543  -2.9909  -2.5100  -2.5100  -1.8120
     0.8485   1.5510

          k = 0.3125 0.3750 0.0000 ( 26595 PWs)   bands (ev):

    -9.1879  -6.9663  -5.8719  -5.3786  -3.6896  -3.1999  -2.1626  -1.5086
     0.2322   0.8898

          k = 0.3125 0.4375 0.0000 ( 26596 PWs)   bands (ev):

    -8.7335  -7.6216  -5.4316  -4.9472  -4.3152  -3.8314  -1.7740  -1.2808
    -0.1845   0.3107

          k = 0.3125-0.5000 0.0000 ( 26580 PWs)   bands (ev):

    -8.2110  -8.2110  -4.9387  -4.9387  -4.3884  -4.3884  -1.4034  -1.4034
    -0.1244  -0.1244

          k = 0.3750 0.3750 0.0000 ( 26618 PWs)   bands (ev):

    -8.8033  -6.5885  -6.5885  -5.0164  -4.3806  -2.8411  -2.8411  -1.3473
    -0.2462   1.2341

          k = 0.3750 0.4375 0.0000 ( 26586 PWs)   bands (ev):

    -8.3502  -7.2416  -6.1439  -5.0742  -4.5230  -3.4677  -2.4261  -1.5347
    -0.2516   0.6335

          k = 0.3750-0.5000 0.0000 ( 26618 PWs)   bands (ev):

    -7.8293  -7.8293  -5.6346  -5.6346  -4.0337  -4.0337  -1.9707  -1.9707
     0.1179   0.1179

          k = 0.4375 0.4375 0.0000 ( 26638 PWs)   bands (ev):

    -7.8987  -6.7942  -6.7942  -5.7025  -4.1013  -3.0410  -3.0410  -2.0365
     0.0533   1.0410

          k = 0.4375-0.5000 0.0000 ( 26666 PWs)   bands (ev):

    -7.3796  -7.3796  -6.2804  -6.2804  -3.6020  -3.6020  -2.5586  -2.5586
     0.5041   0.5041

          k =-0.5000-0.5000 0.0000 ( 26616 PWs)   bands (ev):

    -6.8629  -6.8629  -6.8629  -6.8629  -3.1078  -3.1078  -3.1078  -3.1078
     0.9763   0.9763

     the Fermi energy is    -1.8577 ev

!    total energy              =     -49.71498774 Ry
     Harris-Foulkes estimate   =     -49.71498775 Ry
     estimated scf accuracy    <          7.9E-09 Ry

     The total energy is the sum of the following terms:

     one-electron contribution =    -113.63925546 Ry
     hartree contribution      =      58.48529871 Ry
     xc contribution           =     -39.66204732 Ry
     ewald contribution        =      45.10101597 Ry
     smearing contrib. (-TS)   =       0.00000035 Ry

     convergence has been achieved in   9 iterations

     Forces acting on atoms (Ry/au):


     negative rho (up, down):  3.099E-06 0.000E+00
     atom    1 type  1   force =     0.00000000    0.00000000   -0.00015059
     atom    2 type  1   force =     0.00000000    0.00000000   -0.00015059
     atom    3 type  1   force =     0.00000000    0.00000000    0.00015059
     atom    4 type  1   force =     0.00000000    0.00000000    0.00015059

     Total force =     0.000301     Total SCF correction =     0.000082
     SCF correction compared to forces is large: reduce conv_thr to get better values


     entering subroutine stress ...


     negative rho (up, down):  3.099E-06 0.000E+00
          total   stress  (Ry/bohr**3)                   (kbar)     P=  -12.83
  -0.00013109   0.00000000   0.00000000        -19.28      0.00      0.00
   0.00000000  -0.00013109   0.00000000          0.00    -19.28      0.00
   0.00000000   0.00000000   0.00000059          0.00      0.00      0.09


     number of scf cycles    =   6
     number of bfgs steps    =   5

     energy   old            =     -49.7148760171 Ry
     energy   new            =     -49.7149877429 Ry

     CASE: energy  _new < energy  _old

     new trust radius        =       0.0014607485 bohr
     new conv_thr            =       0.0000000100 Ry


ATOMIC_POSITIONS (crystal)
Al       0.000000000   0.000000000  -0.001994891
Al       0.500000000   0.500000000  -0.001994892
Al       0.500000000   0.000000000   0.101994891
Al       0.000000000   0.500000000   0.101994891



     Writing output data file Al_100_1_4.save
     NEW-OLD atomic charge density approx. for the potential

     negative rho (up, down):  2.977E-06 0.000E+00

     total cpu time spent up to now is     1165.1 secs

     per-process dynamical memory:   255.6 Mb

     Self-consistent Calculation

     iteration #  1     ecut=    80.00 Ry     beta=0.30
     Davidson diagonalization with overlap
     ethr =  1.00E-06,  avg # of iterations =  1.0

     Threshold (ethr) on eigenvalues was too large:
     Diagonalizing with lowered threshold

     Davidson diagonalization with overlap
     ethr =  5.02E-10,  avg # of iterations =  4.0

     negative rho (up, down):  3.110E-06 0.000E+00

     total cpu time spent up to now is     1214.2 secs

     total energy              =     -49.71498831 Ry
     Harris-Foulkes estimate   =     -49.71498838 Ry
     estimated scf accuracy    <       0.00000055 Ry

     iteration #  2     ecut=    80.00 Ry     beta=0.30
     Davidson diagonalization with overlap
     ethr =  4.61E-09,  avg # of iterations =  1.0

     negative rho (up, down):  3.604E-06 0.000E+00

     total cpu time spent up to now is     1233.3 secs

     total energy              =     -49.71498816 Ry
     Harris-Foulkes estimate   =     -49.71498832 Ry
     estimated scf accuracy    <       0.00000032 Ry

     iteration #  3     ecut=    80.00 Ry     beta=0.30
     Davidson diagonalization with overlap
     ethr =  2.64E-09,  avg # of iterations =  2.0

     negative rho (up, down):  3.087E-06 0.000E+00

     total cpu time spent up to now is     1252.8 secs

     End of self-consistent calculation

          k = 0.0000 0.0000 0.0000 ( 26609 PWs)   bands (ev):

   -11.3357  -7.4940  -3.4294  -3.1575  -3.1575  -1.6802  -1.6802   0.3886
     0.3886   0.7707

          k = 0.0000 0.0625 0.0000 ( 26567 PWs)   bands (ev):

   -11.3002  -7.4589  -3.6984  -3.3960  -3.1248  -1.6473  -1.0804  -0.0851
     0.4206   0.8046

          k = 0.0000 0.1250 0.0000 ( 26551 PWs)   bands (ev):

   -11.1936  -7.3535  -4.5830  -3.2958  -3.0265  -1.5543  -0.8965  -0.0199
     0.5167   0.9057

          k = 0.0000 0.1875 0.0000 ( 26600 PWs)   bands (ev):

   -11.0161  -7.1782  -5.4710  -3.1291  -2.8626  -1.7835  -1.3415   0.6770
     1.0716   1.1542

          k = 0.0000 0.2500 0.0000 ( 26524 PWs)   bands (ev):

   -10.7680  -6.9331  -6.3144  -2.8962  -2.6333  -2.5773  -1.1223   0.9012
     1.0499   1.5593

          k = 0.0000 0.3125 0.0000 ( 26528 PWs)   bands (ev):

   -10.4496  -7.1007  -6.6189  -3.3371  -2.5976  -2.3383  -0.8223   0.4422
     0.8069   1.1895

          k = 0.0000 0.3750 0.0000 ( 26568 PWs)   bands (ev):

   -10.0614  -7.8250  -6.2362  -4.0421  -2.2341  -1.9778  -0.4564  -0.1812
     0.1192   1.5409

          k = 0.0000 0.4375 0.0000 ( 26588 PWs)   bands (ev):

    -9.6040  -8.4847  -5.7859  -4.6871  -1.8073  -1.5518  -0.7745  -0.5032
    -0.0289   0.9794

          k = 0.0000-0.5000 0.0000 ( 26558 PWs)   bands (ev):

    -9.0781  -9.0781  -5.2690  -5.2690  -1.3193  -1.3193  -1.0602  -1.0602
     0.4545   0.4545

          k = 0.0625 0.0625 0.0000 ( 26537 PWs)   bands (ev):

   -11.2646  -7.4238  -3.6651  -3.6651  -3.3626  -1.0488  -1.0488  -0.0536
    -0.0536   0.8381

          k = 0.0625 0.1250 0.0000 ( 26552 PWs)   bands (ev):

   -11.1581  -7.3185  -4.5494  -3.5656  -3.2626  -1.0000  -0.8215  -0.0342
     0.0825   0.9371

          k = 0.0625 0.1875 0.0000 ( 26573 PWs)   bands (ev):

   -10.9806  -7.1432  -5.4371  -3.4000  -3.0960  -1.7312  -0.7654   0.1727
     1.0909   1.1964

          k = 0.0625 0.2500 0.0000 ( 26585 PWs)   bands (ev):

   -10.7326  -6.8982  -6.2801  -3.1710  -2.8633  -2.5350  -0.5355   0.3404
     0.9903   1.3342

          k = 0.0625 0.3125 0.0000 ( 26555 PWs)   bands (ev):

   -10.4143  -7.0662  -6.5842  -3.3104  -2.8579  -2.5651  -0.2379   0.2863
     0.3039   1.0057

          k = 0.0625 0.3750 0.0000 ( 26555 PWs)   bands (ev):

   -10.0262  -7.7904  -6.2017  -4.0097  -2.4991  -2.2024  -0.3943  -0.1851
     0.1236   1.2040

          k = 0.0625 0.4375 0.0000 ( 26574 PWs)   bands (ev):

    -9.5689  -8.4499  -5.7516  -4.6536  -2.0700  -1.7770  -1.0162  -0.7544
     0.5459   1.5277

          k = 0.0625-0.5000 0.0000 ( 26598 PWs)   bands (ev):

    -9.0432  -9.0432  -5.2350  -5.2350  -1.5753  -1.5753  -1.2919  -1.2919
     1.0221   1.0221

          k = 0.1250 0.1250 0.0000 ( 26551 PWs)   bands (ev):

   -11.0516  -7.2133  -4.4485  -4.4485  -3.1627  -0.7929  -0.7929   0.1231
     0.1231   1.0214

          k = 0.1250 0.1875 0.0000 ( 26552 PWs)   bands (ev):

   -10.8743  -7.0382  -5.3353  -4.2808  -2.9967  -1.6305  -0.6398   0.2862
     0.9087   1.2962

          k = 0.1250 0.2500 0.0000 ( 26563 PWs)   bands (ev):

   -10.6265  -6.7936  -6.1776  -4.0469  -2.7649  -2.4368  -0.4430   0.1797
     0.5155   1.5355

          k = 0.1250 0.3125 0.0000 ( 26555 PWs)   bands (ev):

   -10.3084  -6.9630  -6.4800  -3.7531  -3.1883  -2.4681  -0.5590  -0.2481
     0.8089   0.9322

          k = 0.1250 0.3750 0.0000 ( 26573 PWs)   bands (ev):

    -9.9206  -7.6865  -6.0981  -3.9186  -3.3584  -2.1080  -1.2452  -0.2868
     0.6624   1.1642

          k = 0.1250 0.4375 0.0000 ( 26557 PWs)   bands (ev):

    -9.4637  -8.3455  -5.6487  -4.5540  -2.9324  -1.8713  -1.6876  -0.7109
     0.8937   1.5766

          k = 0.1250-0.5000 0.0000 ( 26554 PWs)   bands (ev):

    -8.9383  -8.9383  -5.1334  -5.1334  -2.4345  -2.4345  -1.2143  -1.2143
     1.3263   1.3263

          k = 0.1875 0.1875 0.0000 ( 26561 PWs)   bands (ev):

   -10.6972  -6.8635  -5.1658  -5.1658  -2.8316  -1.4724  -1.4724   0.1323
     1.4590   1.4590

          k = 0.1875 0.2500 0.0000 ( 26541 PWs)   bands (ev):

   -10.4497  -6.6195  -6.0068  -4.9292  -2.6014  -2.2750  -1.2582  -0.6637
     1.6854   1.7344

          k = 0.1875 0.3125 0.0000 ( 26566 PWs)   bands (ev):

   -10.1321  -6.7911  -6.3066  -4.6268  -3.0294  -2.3077  -1.4128  -1.0007
     1.0509   1.9741

          k = 0.1875 0.3750 0.0000 ( 26569 PWs)   bands (ev):

    -9.7448  -7.5136  -5.9258  -4.2674  -3.7189  -2.1047  -1.9534  -0.7541
     0.4888   1.6606

          k = 0.1875 0.4375 0.0000 ( 26566 PWs)   bands (ev):

    -9.2884  -8.1717  -5.4780  -4.3966  -3.7938  -2.7351  -1.5459  -0.7495
     0.2897   1.0719

          k = 0.1875-0.5000 0.0000 ( 26550 PWs)   bands (ev):

    -8.7638  -8.7638  -4.9653  -4.9653  -3.3010  -3.3010  -1.1090  -1.1090
     0.5792   0.5792

          k = 0.2500 0.2500 0.0000 ( 26595 PWs)   bands (ev):

   -10.2026  -6.3763  -5.7682  -5.7682  -2.3744  -2.0515  -2.0515  -1.4713
     1.9756   1.9756

          k = 0.2500 0.3125 0.0000 ( 26582 PWs)   bands (ev):

    -9.8855  -6.5508  -6.0646  -5.4624  -2.8012  -2.2266  -2.0867  -1.7713
     1.2646   1.5548

          k = 0.2500 0.3750 0.0000 ( 26571 PWs)   bands (ev):

    -9.4989  -7.2719  -5.6855  -5.0910  -3.4960  -2.9229  -1.7458  -1.4491
     0.6257   0.9050

          k = 0.2500 0.4375 0.0000 ( 26591 PWs)   bands (ev):

    -9.0434  -7.9288  -5.2409  -4.6654  -4.1199  -3.5559  -1.3755  -1.1421
     0.1253   0.3498

          k = 0.2500-0.5000 0.0000 ( 26572 PWs)   bands (ev):

    -8.5197  -8.5197  -4.7404  -4.7404  -4.1152  -4.1152  -1.0813  -1.0813
    -0.0032  -0.0032

          k = 0.3125 0.3125 0.0000 ( 26611 PWs)   bands (ev):

    -9.5692  -6.2427  -6.2427  -5.7548  -2.9863  -2.5103  -2.5103  -1.8125
     0.8477   1.5501

          k = 0.3125 0.3750 0.0000 ( 26595 PWs)   bands (ev):

    -9.1835  -6.9619  -5.8675  -5.3791  -3.6850  -3.2002  -2.1629  -1.5090
     0.2312   0.8889

          k = 0.3125 0.4375 0.0000 ( 26596 PWs)   bands (ev):

    -8.7291  -7.6171  -5.4272  -4.9477  -4.3106  -3.8318  -1.7743  -1.2808
    -0.1857   0.3097

          k = 0.3125-0.5000 0.0000 ( 26580 PWs)   bands (ev):

    -8.2066  -8.2066  -4.9346  -4.9346  -4.3884  -4.3884  -1.4035  -1.4035
    -0.1255  -0.1255

          k = 0.3750 0.3750 0.0000 ( 26618 PWs)   bands (ev):

    -8.7989  -6.5841  -6.5841  -5.0169  -4.3760  -2.8415  -2.8415  -1.3474
    -0.2474   1.2332

          k = 0.3750 0.4375 0.0000 ( 26586 PWs)   bands (ev):

    -8.3458  -7.2372  -6.1394  -5.0702  -4.5229  -3.4680  -2.4265  -1.5347
    -0.2528   0.6326

          k = 0.3750-0.5000 0.0000 ( 26618 PWs)   bands (ev):

    -7.8249  -7.8249  -5.6302  -5.6302  -4.0340  -4.0340  -1.9710  -1.9710
     0.1169   0.1169

          k = 0.4375 0.4375 0.0000 ( 26638 PWs)   bands (ev):

    -7.8942  -6.7897  -6.7897  -5.6981  -4.1016  -3.0414  -3.0414  -2.0368
     0.0522   1.0401

          k = 0.4375-0.5000 0.0000 ( 26666 PWs)   bands (ev):

    -7.3752  -7.3752  -6.2759  -6.2759  -3.6024  -3.6024  -2.5589  -2.5589
     0.5032   0.5032

          k =-0.5000-0.5000 0.0000 ( 26616 PWs)   bands (ev):

    -6.8584  -6.8584  -6.8584  -6.8584  -3.1082  -3.1082  -3.1082  -3.1082
     0.9753   0.9753

     the Fermi energy is    -1.8568 ev

!    total energy              =     -49.71498822 Ry
     Harris-Foulkes estimate   =     -49.71498822 Ry
     estimated scf accuracy    <          3.0E-09 Ry

     The total energy is the sum of the following terms:

     one-electron contribution =    -113.60600327 Ry
     hartree contribution      =      58.46864330 Ry
     xc contribution           =     -39.66130211 Ry
     ewald contribution        =      45.08368093 Ry
     smearing contrib. (-TS)   =      -0.00000707 Ry

     convergence has been achieved in   3 iterations

     Forces acting on atoms (Ry/au):


     negative rho (up, down):  3.087E-06 0.000E+00
     atom    1 type  1   force =     0.00000000    0.00000000   -0.00000716
     atom    2 type  1   force =     0.00000000    0.00000000   -0.00000715
     atom    3 type  1   force =     0.00000000    0.00000000    0.00000716
     atom    4 type  1   force =     0.00000000    0.00000000    0.00000716

     Total force =     0.000014     Total SCF correction =     0.000003
     SCF correction compared to forces is large: reduce conv_thr to get better values


     entering subroutine stress ...


     negative rho (up, down):  3.087E-06 0.000E+00
          total   stress  (Ry/bohr**3)                   (kbar)     P=  -12.88
  -0.00013130   0.00000000   0.00000000        -19.31      0.00      0.00
   0.00000000  -0.00013130   0.00000000          0.00    -19.31      0.00
   0.00000000   0.00000000  -0.00000001          0.00      0.00     -0.00


     bfgs converged in   7 scf cycles and   6 bfgs steps
     (criteria: energy <  1.0E-04, force <  1.0E-03)

     End of BFGS Geometry Optimization

     Final energy   =     -49.7149882201 Ry
Begin final coordinates

ATOMIC_POSITIONS (crystal)
Al       0.000000000   0.000000000  -0.001994891
Al       0.500000000   0.500000000  -0.001994892
Al       0.500000000   0.000000000   0.101994891
Al       0.000000000   0.500000000   0.101994891
End final coordinates



     Writing output data file Al_100_1_4.save

     init_run     :     10.01s CPU     11.64s WALL (       1 calls)
     electrons    :    877.86s CPU   1176.02s WALL (       7 calls)
     update_pot   :      1.48s CPU      1.66s WALL (       6 calls)
     forces       :     16.47s CPU     17.21s WALL (       7 calls)
     stress       :     54.00s CPU     55.48s WALL (       7 calls)

     Called by init_run:
     wfcinit      :      9.48s CPU     11.08s WALL (       1 calls)
     potinit      :      0.12s CPU      0.12s WALL (       1 calls)

     Called by electrons:
     c_bands      :    697.30s CPU    926.66s WALL (      50 calls)
     sum_band     :    102.45s CPU    144.87s WALL (      50 calls)
     v_of_rho     :      4.49s CPU      5.47s WALL (      55 calls)
     newd         :      2.91s CPU      3.05s WALL (      55 calls)
     mix_rho      :     71.33s CPU     96.69s WALL (      50 calls)

     Called by c_bands:
     init_us_2    :     23.44s CPU     29.47s WALL (    5175 calls)
     cegterg      :    678.72s CPU    902.39s WALL (    2250 calls)

     Called by *egterg:
     h_psi        :    452.59s CPU    631.32s WALL (    6523 calls)
     s_psi        :     38.88s CPU     45.15s WALL (    6523 calls)
     g_psi        :      3.07s CPU      4.12s WALL (    4228 calls)
     cdiaghg      :      1.32s CPU      1.78s WALL (    6118 calls)

     Called by h_psi:
     add_vuspsi   :     40.65s CPU     45.10s WALL (    6523 calls)

     General routines
     calbec       :     64.10s CPU     73.22s WALL (    9403 calls)
     fft          :      3.06s CPU      4.44s WALL (     895 calls)
     ffts         :     50.25s CPU     68.07s WALL (   13619 calls)
     fftw         :    412.70s CPU    603.23s WALL (  132060 calls)
     davcio       :      0.00s CPU      0.10s WALL (      45 calls)

     Parallel routines
     fft_scatter  :     16.74s CPU     29.38s WALL (  146574 calls)

     PWSCF        : 16m 0.83s CPU    21m 3.24s WALL


   This run was terminated on:   0:20:29  29May2020            

=------------------------------------------------------------------------------=
   JOB DONE.
=------------------------------------------------------------------------------=
