
     Program PWSCF v.6.4.1 starts on  6Jun2020 at 22:23:23 

     This program is part of the open-source Quantum ESPRESSO suite
     for quantum simulation of materials; please cite
         "P. Giannozzi et al., J. Phys.:Condens. Matter 21 395502 (2009);
         "P. Giannozzi et al., J. Phys.:Condens. Matter 29 465901 (2017);
          URL http://www.quantum-espresso.org", 
     in publications or presentations arising from this work. More details at
     http://www.quantum-espresso.org/quote

     Parallel version (MPI & OpenMP), running on       1 processor cores
     Number of MPI processes:                 1
     Threads/MPI process:                     1

     MPI processes distributed on     1 nodes
     Reading input from Al_111_H3_hole_B_site_2.pw.in

     Current dimensions of program PWSCF are:
     Max number of different atomic species (ntypx) = 10
     Max number of k-points (npk) =  40000
     Max angular momentum in pseudopotentials (lmaxx) =  3
               file H.pbe-rrkjus.UPF: wavefunction(s)  1S renormalized

     Subspace diagonalization in iterative solution of the eigenvalue problem:
     a serial algorithm will be used

 
     G-vector sticks info
     --------------------
     sticks:   dense  smooth     PW     G-vecs:    dense   smooth      PW
     Sum        2713    2161    583              1657165  1184975  169819
 


     bravais-lattice index     =            4
     lattice parameter (alat)  =      16.1280  a.u.
     unit-cell volume          =   53394.8108 (a.u.)^3
     number of atoms/cell      =           82
     number of atomic types    =            2
     number of electrons       =       244.00
     number of Kohn-Sham states=          146
     kinetic-energy cutoff     =      30.0000  Ry
     charge density cutoff     =     150.0000  Ry
     convergence threshold     =      8.1E-05
     mixing beta               =       0.3000
     number of iterations used =            8  local-TF  mixing
     Exchange-correlation      =  SLA  PW   PBE  PBE ( 1  4  3  4 0 0)
     nstep                     =           50


     celldm(1)=  16.128000  celldm(2)=   0.000000  celldm(3)=  14.696938
     celldm(4)=   0.000000  celldm(5)=   0.000000  celldm(6)=   0.000000

     crystal axes: (cart. coord. in units of alat)
               a(1) = (   1.000000   0.000000   0.000000 )  
               a(2) = (  -0.500000   0.866025   0.000000 )  
               a(3) = (   0.000000   0.000000  14.696938 )  

     reciprocal axes: (cart. coord. in units 2 pi/alat)
               b(1) = (  1.000000  0.577350  0.000000 )  
               b(2) = (  0.000000  1.154701  0.000000 )  
               b(3) = (  0.000000  0.000000  0.068041 )  


     PseudoPot. # 1 for Al read from file:
     ./Al.pbe-n-van.UPF
     MD5 check sum: b11ded24487aef5bc42d5c7a2e22a7b6
     Pseudo is Ultrasoft + core correction, Zval =  3.0
     Generated by new atomic code, or converted to UPF format
     Using radial grid of  893 points,  2 beta functions with: 
                l(1) =   0
                l(2) =   1
     Q(r) pseudized with  8 coefficients,  rinner =    0.900   0.900   0.900


     PseudoPot. # 2 for H  read from file:
     ./H.pbe-rrkjus.UPF
     MD5 check sum: 0433647300470310da31d564c103eed6
     Pseudo is Ultrasoft, Zval =  1.0
     Generated by new atomic code, or converted to UPF format
     Using radial grid of 1061 points,  2 beta functions with: 
                l(1) =   0
                l(2) =   0
     Q(r) pseudized with 0 coefficients 


     atomic species   valence    mass     pseudopotential
        Al             3.00    26.98000     Al( 1.00)
        H              1.00     1.00790     H ( 1.00)

      6 Sym. Ops. (no inversion) found ( 4 have fractional translation)



   Cartesian axes

     site n.     atom                  positions (alat units)
         1           Al  tau(   1) = (   0.1666668   0.0962249   0.8164957  )
         2           Al  tau(   2) = (   0.0000002   0.3849001   0.8164957  )
         3           Al  tau(   3) = (  -0.1666665   0.6735752   0.8164957  )
         4           Al  tau(   4) = (   0.5000001   0.0962249   0.8164957  )
         5           Al  tau(   5) = (   0.3333335   0.3849001   0.8164957  )
         6           Al  tau(   6) = (   0.1666668   0.6735752   0.8164957  )
         7           Al  tau(   7) = (   0.8333335   0.0962249   0.8164957  )
         8           Al  tau(   8) = (   0.6666669   0.3849001   0.8164957  )
         9           Al  tau(   9) = (   0.5000002   0.6735752   0.8164957  )
        10           Al  tau(  10) = (   0.0000000   0.0000000   0.0000000  )
        11           Al  tau(  11) = (  -0.1666667   0.2886751   0.0000000  )
        12           Al  tau(  12) = (  -0.3333333   0.5773503   0.0000000  )
        13           Al  tau(  13) = (   0.3333333   0.0000000   0.0000000  )
        14           Al  tau(  14) = (   0.1666667   0.2886751   0.0000000  )
        15           Al  tau(  15) = (  -0.0000000   0.5773503   0.0000000  )
        16           Al  tau(  16) = (   0.6666667   0.0000000   0.0000000  )
        17           Al  tau(  17) = (   0.5000000   0.2886751   0.0000000  )
        18           Al  tau(  18) = (   0.3333333   0.5773503   0.0000000  )
        19           Al  tau(  19) = (  -0.0000002   0.1924502   1.6329939  )
        20           Al  tau(  20) = (  -0.1666668   0.4811253   1.6329939  )
        21           Al  tau(  21) = (  -0.3333335   0.7698005   1.6329939  )
        22           Al  tau(  22) = (   0.3333332   0.1924502   1.6329939  )
        23           Al  tau(  23) = (   0.1666665   0.4811253   1.6329939  )
        24           Al  tau(  24) = (  -0.0000002   0.7698005   1.6329939  )
        25           Al  tau(  25) = (   0.6666665   0.1924502   1.6329939  )
        26           Al  tau(  26) = (   0.4999999   0.4811253   1.6329939  )
        27           Al  tau(  27) = (   0.3333332   0.7698005   1.6329939  )
        28           Al  tau(  28) = (   0.1666668   0.0962249   3.2659855  )
        29           Al  tau(  29) = (   0.0000002   0.3849001   3.2659855  )
        30           Al  tau(  30) = (  -0.1666665   0.6735752   3.2659855  )
        31           Al  tau(  31) = (   0.5000001   0.0962249   3.2659855  )
        32           Al  tau(  32) = (   0.3333335   0.3849001   3.2659855  )
        33           Al  tau(  33) = (   0.1666668   0.6735752   3.2659855  )
        34           Al  tau(  34) = (   0.8333335   0.0962249   3.2659855  )
        35           Al  tau(  35) = (   0.6666669   0.3849001   3.2659855  )
        36           Al  tau(  36) = (   0.5000002   0.6735752   3.2659855  )
        37           Al  tau(  37) = (   0.0000000   0.0000000   2.4494897  )
        38           Al  tau(  38) = (  -0.1666667   0.2886751   2.4494897  )
        39           Al  tau(  39) = (  -0.3333333   0.5773503   2.4494897  )
        40           Al  tau(  40) = (   0.3333333   0.0000000   2.4494897  )
        41           Al  tau(  41) = (   0.1666667   0.2886751   2.4494897  )
        42           Al  tau(  42) = (  -0.0000000   0.5773503   2.4494897  )
        43           Al  tau(  43) = (   0.6666667   0.0000000   2.4494897  )
        44           Al  tau(  44) = (   0.5000000   0.2886751   2.4494897  )
        45           Al  tau(  45) = (   0.3333333   0.5773503   2.4494897  )
        46           Al  tau(  46) = (  -0.0000002   0.1924502   4.0824837  )
        47           Al  tau(  47) = (  -0.1666668   0.4811253   4.0824837  )
        48           Al  tau(  48) = (  -0.3333335   0.7698005   4.0824837  )
        49           Al  tau(  49) = (   0.3333332   0.1924502   4.0824837  )
        50           Al  tau(  50) = (   0.1666665   0.4811253   4.0824837  )
        51           Al  tau(  51) = (  -0.0000002   0.7698005   4.0824837  )
        52           Al  tau(  52) = (   0.6666665   0.1924502   4.0824837  )
        53           Al  tau(  53) = (   0.4999999   0.4811253   4.0824837  )
        54           Al  tau(  54) = (   0.3333332   0.7698005   4.0824837  )
        55           Al  tau(  55) = (   0.1666668   0.0962249   5.7154752  )
        56           Al  tau(  56) = (   0.0000002   0.3849001   5.7154752  )
        57           Al  tau(  57) = (  -0.1666665   0.6735752   5.7154752  )
        58           Al  tau(  58) = (   0.5000001   0.0962249   5.7154752  )
        59           Al  tau(  59) = (   0.3333335   0.3849001   5.7154752  )
        60           Al  tau(  60) = (   0.1666668   0.6735752   5.7154752  )
        61           Al  tau(  61) = (   0.8333335   0.0962249   5.7154752  )
        62           Al  tau(  62) = (   0.6666669   0.3849001   5.7154752  )
        63           Al  tau(  63) = (   0.5000002   0.6735752   5.7154752  )
        64           Al  tau(  64) = (   0.0000000   0.0000000   4.8989795  )
        65           Al  tau(  65) = (  -0.1666667   0.2886751   4.8989795  )
        66           Al  tau(  66) = (  -0.3333333   0.5773503   4.8989795  )
        67           Al  tau(  67) = (   0.3333333   0.0000000   4.8989795  )
        68           Al  tau(  68) = (   0.1666667   0.2886751   4.8989795  )
        69           Al  tau(  69) = (  -0.0000000   0.5773503   4.8989795  )
        70           Al  tau(  70) = (   0.6666667   0.0000000   4.8989795  )
        71           Al  tau(  71) = (   0.5000000   0.2886751   4.8989795  )
        72           Al  tau(  72) = (   0.3333333   0.5773503   4.8989795  )
        73           Al  tau(  73) = (  -0.0000002   0.1924502   6.5319734  )
        74           Al  tau(  74) = (  -0.1666668   0.4811253   6.5319734  )
        75           Al  tau(  75) = (  -0.3333335   0.7698005   6.5319734  )
        76           Al  tau(  76) = (   0.3333332   0.1924502   6.5319734  )
        77           Al  tau(  77) = (   0.1666665   0.4811253   6.5319734  )
        78           Al  tau(  78) = (  -0.0000002   0.7698005   6.5319734  )
        79           Al  tau(  79) = (   0.6666665   0.1924502   6.5319734  )
        80           Al  tau(  80) = (   0.4999999   0.4811253   6.5319734  )
        81           Al  tau(  81) = (   0.3333332   0.7698005   6.5319734  )
        82           H   tau(  82) = (   0.1666668   0.0962249   6.1237241  )

     number of k points=    44  Marzari-Vanderbilt smearing, width (Ry)=  0.0250
                       cart. coord. in units 2pi/alat
        k(    1) = (   0.0000000   0.0000000   0.0000000), wk =   0.0050000
        k(    2) = (   0.0000000   0.0577350   0.0000000), wk =   0.0300000
        k(    3) = (   0.0000000   0.1154701   0.0000000), wk =   0.0300000
        k(    4) = (   0.0000000   0.1732051   0.0000000), wk =   0.0300000
        k(    5) = (   0.0000000   0.2309401   0.0000000), wk =   0.0300000
        k(    6) = (   0.0000000   0.2886751   0.0000000), wk =   0.0300000
        k(    7) = (   0.0000000   0.3464102   0.0000000), wk =   0.0300000
        k(    8) = (   0.0000000   0.4041452   0.0000000), wk =   0.0300000
        k(    9) = (   0.0000000   0.4618802   0.0000000), wk =   0.0300000
        k(   10) = (   0.0000000   0.5196152   0.0000000), wk =   0.0300000
        k(   11) = (   0.0000000  -0.5773503   0.0000000), wk =   0.0150000
        k(   12) = (   0.0500000   0.0866025   0.0000000), wk =   0.0300000
        k(   13) = (   0.0500000   0.1443376   0.0000000), wk =   0.0600000
        k(   14) = (   0.0500000   0.2020726   0.0000000), wk =   0.0600000
        k(   15) = (   0.0500000   0.2598076   0.0000000), wk =   0.0600000
        k(   16) = (   0.0500000   0.3175426   0.0000000), wk =   0.0600000
        k(   17) = (   0.0500000   0.3752777   0.0000000), wk =   0.0600000
        k(   18) = (   0.0500000   0.4330127   0.0000000), wk =   0.0600000
        k(   19) = (   0.0500000   0.4907477   0.0000000), wk =   0.0600000
        k(   20) = (   0.0500000   0.5484828   0.0000000), wk =   0.0600000
        k(   21) = (   0.1000000   0.1732051   0.0000000), wk =   0.0300000
        k(   22) = (   0.1000000   0.2309401   0.0000000), wk =   0.0600000
        k(   23) = (   0.1000000   0.2886751   0.0000000), wk =   0.0600000
        k(   24) = (   0.1000000   0.3464102   0.0000000), wk =   0.0600000
        k(   25) = (   0.1000000   0.4041452   0.0000000), wk =   0.0600000
        k(   26) = (   0.1000000   0.4618802   0.0000000), wk =   0.0600000
        k(   27) = (   0.1000000   0.5196152   0.0000000), wk =   0.0600000
        k(   28) = (   0.1000000   0.5773503   0.0000000), wk =   0.0300000
        k(   29) = (   0.1500000   0.2598076   0.0000000), wk =   0.0300000
        k(   30) = (   0.1500000   0.3175426   0.0000000), wk =   0.0600000
        k(   31) = (   0.1500000   0.3752777   0.0000000), wk =   0.0600000
        k(   32) = (   0.1500000   0.4330127   0.0000000), wk =   0.0600000
        k(   33) = (   0.1500000   0.4907477   0.0000000), wk =   0.0600000
        k(   34) = (   0.1500000   0.5484828   0.0000000), wk =   0.0600000
        k(   35) = (   0.2000000   0.3464102   0.0000000), wk =   0.0300000
        k(   36) = (   0.2000000   0.4041452   0.0000000), wk =   0.0600000
        k(   37) = (   0.2000000   0.4618802   0.0000000), wk =   0.0600000
        k(   38) = (   0.2000000   0.5196152   0.0000000), wk =   0.0600000
        k(   39) = (   0.2000000   0.5773503   0.0000000), wk =   0.0300000
        k(   40) = (   0.2500000   0.4330127   0.0000000), wk =   0.0300000
        k(   41) = (   0.2500000   0.4907477   0.0000000), wk =   0.0600000
        k(   42) = (   0.2500000   0.5484828   0.0000000), wk =   0.0600000
        k(   43) = (   0.3000000   0.5196152   0.0000000), wk =   0.0300000
        k(   44) = (   0.3000000   0.5773503   0.0000000), wk =   0.0300000

     Dense  grid:  1657165 G-vectors     FFT dimensions: (  72,  72, 960)

     Smooth grid:  1184975 G-vectors     FFT dimensions: (  60,  60, 864)

     Estimated max dynamical RAM per process >      22.74 GB

     Initial potential from superposition of free atoms

     starting charge  243.70410, renormalised to  244.00000

     negative rho (up, down):  5.352E-04 0.000E+00
     Starting wfcs are  325 randomized atomic wfcs

     total cpu time spent up to now is     2378.1 secs

     Self-consistent Calculation

     iteration #  1     ecut=    30.00 Ry     beta= 0.30
     Davidson diagonalization with overlap
     ethr =  1.00E-02,  avg # of iterations =  3.0

     negative rho (up, down):  4.766E-03 0.000E+00

     total cpu time spent up to now is     6381.4 secs

     total energy              =   -1008.12110515 Ry
     Harris-Foulkes estimate   =   -1011.03828750 Ry
     estimated scf accuracy    <    2136.04865991 Ry

     iteration #  2     ecut=    30.00 Ry     beta= 0.30
     Davidson diagonalization with overlap
     ethr =  1.00E-02,  avg # of iterations =  1.0

     negative rho (up, down):  1.927E-01 0.000E+00

     total cpu time spent up to now is     9074.4 secs

     total energy              =   -1004.06655054 Ry
     Harris-Foulkes estimate   =   -1008.57329445 Ry
     estimated scf accuracy    <    1020.57288413 Ry

     iteration #  3     ecut=    30.00 Ry     beta= 0.30
     Davidson diagonalization with overlap
     ethr =  1.00E-02,  avg # of iterations =  1.4

     negative rho (up, down):  1.926E-01 0.000E+00

     total cpu time spent up to now is    11778.7 secs

     total energy              =   -1006.02051344 Ry
     Harris-Foulkes estimate   =   -1006.02013564 Ry
     estimated scf accuracy    <      36.65118750 Ry

     iteration #  4     ecut=    30.00 Ry     beta= 0.30
     Davidson diagonalization with overlap
     ethr =  1.00E-02,  avg # of iterations =  1.0

     negative rho (up, down):  1.897E-01 0.000E+00

     total cpu time spent up to now is    14461.6 secs

     total energy              =   -1006.03190483 Ry
     Harris-Foulkes estimate   =   -1006.02766913 Ry
     estimated scf accuracy    <      36.39997494 Ry

     iteration #  5     ecut=    30.00 Ry     beta= 0.30
     Davidson diagonalization with overlap
     ethr =  1.00E-02,  avg # of iterations =  1.0

     negative rho (up, down):  1.861E-01 0.000E+00

     total cpu time spent up to now is    17097.7 secs

     total energy              =   -1006.18694778 Ry
     Harris-Foulkes estimate   =   -1006.03404995 Ry
     estimated scf accuracy    <      36.01186029 Ry

     iteration #  6     ecut=    30.00 Ry     beta= 0.30
     Davidson diagonalization with overlap
     ethr =  1.00E-02,  avg # of iterations =  1.2

     negative rho (up, down):  1.857E-01 0.000E+00

     total cpu time spent up to now is    19775.1 secs

     total energy              =   -1006.23308469 Ry
     Harris-Foulkes estimate   =   -1006.23377970 Ry
     estimated scf accuracy    <      45.80411753 Ry

     iteration #  7     ecut=    30.00 Ry     beta= 0.30
     Davidson diagonalization with overlap
     ethr =  1.00E-02,  avg # of iterations =  1.3

     negative rho (up, down):  3.190E-01 0.000E+00

     total cpu time spent up to now is    22472.6 secs

     total energy              =   -1006.42983440 Ry
     Harris-Foulkes estimate   =   -1006.23944868 Ry
     estimated scf accuracy    <      43.66442399 Ry

     iteration #  8     ecut=    30.00 Ry     beta= 0.30
     Davidson diagonalization with overlap
     ethr =  1.00E-02,  avg # of iterations =  1.1

     negative rho (up, down):  2.822E-01 0.000E+00

     total cpu time spent up to now is    25176.1 secs

     total energy              =   -1006.38005411 Ry
     Harris-Foulkes estimate   =   -1006.47034685 Ry
     estimated scf accuracy    <      47.60832866 Ry

     iteration #  9     ecut=    30.00 Ry     beta= 0.30
     Davidson diagonalization with overlap
     ethr =  1.00E-02,  avg # of iterations =  1.0

     negative rho (up, down):  6.179E-01 0.000E+00

     total cpu time spent up to now is    27801.9 secs

     total energy              =   -1006.76279815 Ry
     Harris-Foulkes estimate   =   -1006.42023580 Ry
     estimated scf accuracy    <      44.61258538 Ry

     iteration # 10     ecut=    30.00 Ry     beta= 0.30
     Davidson diagonalization with overlap
     ethr =  1.00E-02,  avg # of iterations =  1.1

     negative rho (up, down):  2.185E+00 0.000E+00

     total cpu time spent up to now is    30408.2 secs

     total energy              =   -1009.18007723 Ry
     Harris-Foulkes estimate   =   -1006.87354622 Ry
     estimated scf accuracy    <      78.23167201 Ry

     iteration # 11     ecut=    30.00 Ry     beta= 0.30
     Davidson diagonalization with overlap
     ethr =  1.00E-02,  avg # of iterations =  1.0

     negative rho (up, down):  7.095E+00 0.000E+00

     total cpu time spent up to now is    33029.9 secs

     total energy              =   -1015.10035949 Ry
     Harris-Foulkes estimate   =   -1009.77998606 Ry
     estimated scf accuracy    <     177.57295808 Ry

     iteration # 12     ecut=    30.00 Ry     beta= 0.30
     Davidson diagonalization with overlap
     ethr =  1.00E-02,  avg # of iterations =  1.5

     negative rho (up, down):  6.110E-02 0.000E+00

     total cpu time spent up to now is    35694.7 secs

     total energy              =   -1002.83277875 Ry
     Harris-Foulkes estimate   =   -1015.80511606 Ry
     estimated scf accuracy    <     357.33952058 Ry

     iteration # 13     ecut=    30.00 Ry     beta= 0.30
     Davidson diagonalization with overlap
     ethr =  1.00E-02,  avg # of iterations =  2.5

     negative rho (up, down):  2.260E-01 0.000E+00

     total cpu time spent up to now is    38768.3 secs

     total energy              =   -1005.94596404 Ry
     Harris-Foulkes estimate   =   -1006.23060406 Ry
     estimated scf accuracy    <     127.06869312 Ry

     iteration # 14     ecut=    30.00 Ry     beta= 0.30
     Davidson diagonalization with overlap
     ethr =  1.00E-02,  avg # of iterations =  1.1

     negative rho (up, down):  8.955E-01 0.000E+00

     total cpu time spent up to now is    41414.5 secs

     total energy              =   -1006.01485402 Ry
     Harris-Foulkes estimate   =   -1006.16584520 Ry
     estimated scf accuracy    <      72.44112409 Ry

     iteration # 15     ecut=    30.00 Ry     beta= 0.30
     Davidson diagonalization with overlap
     ethr =  1.00E-02,  avg # of iterations =  1.5

     negative rho (up, down):  1.948E+00 0.000E+00

     total cpu time spent up to now is    44054.0 secs

     total energy              =   -1008.47617334 Ry
     Harris-Foulkes estimate   =   -1006.74698488 Ry
     estimated scf accuracy    <      17.88348343 Ry

     iteration # 16     ecut=    30.00 Ry     beta= 0.30
     Davidson diagonalization with overlap
     ethr =  7.33E-03,  avg # of iterations =  3.8

     negative rho (up, down):  1.306E+00 0.000E+00

     total cpu time spent up to now is    46903.9 secs

     total energy              =   -1007.74149591 Ry
     Harris-Foulkes estimate   =   -1008.98033002 Ry
     estimated scf accuracy    <      69.27680708 Ry

     iteration # 17     ecut=    30.00 Ry     beta= 0.30
     Davidson diagonalization with overlap
     ethr =  7.33E-03,  avg # of iterations =  1.7

     negative rho (up, down):  3.711E-01 0.000E+00

     total cpu time spent up to now is    49571.3 secs

     total energy              =   -1005.01997613 Ry
     Harris-Foulkes estimate   =   -1007.83615354 Ry
     estimated scf accuracy    <      48.62419568 Ry

     iteration # 18     ecut=    30.00 Ry     beta= 0.30
     Davidson diagonalization with overlap
     ethr =  7.33E-03,  avg # of iterations =  3.5

     negative rho (up, down):  7.332E-01 0.000E+00

     total cpu time spent up to now is    52411.4 secs

     total energy              =   -1007.22596444 Ry
     Harris-Foulkes estimate   =   -1006.62852832 Ry
     estimated scf accuracy    <     157.72406306 Ry

     iteration # 19     ecut=    30.00 Ry     beta= 0.30
     Davidson diagonalization with overlap
     ethr =  7.33E-03,  avg # of iterations =  1.5

     negative rho (up, down):  1.534E-01 0.000E+00

     total cpu time spent up to now is    55057.7 secs

     total energy              =   -1007.00801407 Ry
     Harris-Foulkes estimate   =   -1007.49209440 Ry
     estimated scf accuracy    <     369.54601176 Ry

     iteration # 20     ecut=    30.00 Ry     beta= 0.30
     Davidson diagonalization with overlap
     ethr =  7.33E-03,  avg # of iterations =  1.0

     negative rho (up, down):  3.605E-01 0.000E+00

     total cpu time spent up to now is    57689.0 secs

     total energy              =   -1005.82028231 Ry
     Harris-Foulkes estimate   =   -1007.07873880 Ry
     estimated scf accuracy    <     316.17881278 Ry

     iteration # 21     ecut=    30.00 Ry     beta= 0.30
     Davidson diagonalization with overlap
     ethr =  7.33E-03,  avg # of iterations =  1.5

     negative rho (up, down):  3.990E-01 0.000E+00

     total cpu time spent up to now is    60349.8 secs

     total energy              =   -1006.11149519 Ry
     Harris-Foulkes estimate   =   -1006.17558792 Ry
     estimated scf accuracy    <      72.40074916 Ry

     iteration # 22     ecut=    30.00 Ry     beta= 0.30
     Davidson diagonalization with overlap
     ethr =  7.33E-03,  avg # of iterations =  1.0

     negative rho (up, down):  4.572E-01 0.000E+00

     total cpu time spent up to now is    63005.8 secs

     total energy              =   -1006.04249065 Ry
     Harris-Foulkes estimate   =   -1006.13158035 Ry
     estimated scf accuracy    <      60.54384107 Ry

     iteration # 23     ecut=    30.00 Ry     beta= 0.30
     Davidson diagonalization with overlap
     ethr =  7.33E-03,  avg # of iterations =  1.0

     negative rho (up, down):  4.951E-01 0.000E+00

     total cpu time spent up to now is    65668.6 secs

     total energy              =   -1006.02712341 Ry
     Harris-Foulkes estimate   =   -1006.07484854 Ry
     estimated scf accuracy    <      28.39231629 Ry

     iteration # 24     ecut=    30.00 Ry     beta= 0.30
     Davidson diagonalization with overlap
     ethr =  7.33E-03,  avg # of iterations =  1.1

     negative rho (up, down):  4.033E-01 0.000E+00

     total cpu time spent up to now is    68348.1 secs

     total energy              =   -1006.11676745 Ry
     Harris-Foulkes estimate   =   -1006.11780012 Ry
     estimated scf accuracy    <       5.02061588 Ry

     iteration # 25     ecut=    30.00 Ry     beta= 0.30
     Davidson diagonalization with overlap
     ethr =  2.06E-03,  avg # of iterations =  2.1

     negative rho (up, down):  4.030E-01 0.000E+00

     total cpu time spent up to now is    71045.7 secs

     total energy              =   -1006.14959053 Ry
     Harris-Foulkes estimate   =   -1006.14471109 Ry
     estimated scf accuracy    <       9.61464335 Ry

     iteration # 26     ecut=    30.00 Ry     beta= 0.30
     Davidson diagonalization with overlap
     ethr =  2.06E-03,  avg # of iterations =  1.4

     negative rho (up, down):  5.346E-01 0.000E+00

     total cpu time spent up to now is    73708.6 secs

     total energy              =   -1006.26567744 Ry
     Harris-Foulkes estimate   =   -1006.15436698 Ry
     estimated scf accuracy    <       6.37382224 Ry

     iteration # 27     ecut=    30.00 Ry     beta= 0.30
     Davidson diagonalization with overlap
     ethr =  2.06E-03,  avg # of iterations =  1.4

     negative rho (up, down):  5.446E-01 0.000E+00

     total cpu time spent up to now is    76397.0 secs

     total energy              =   -1006.30271268 Ry
     Harris-Foulkes estimate   =   -1006.28101058 Ry
     estimated scf accuracy    <       2.08694644 Ry

     iteration # 28     ecut=    30.00 Ry     beta= 0.30
     Davidson diagonalization with overlap
     ethr =  8.55E-04,  avg # of iterations =  3.7

     negative rho (up, down):  3.573E-01 0.000E+00

     total cpu time spent up to now is    79274.7 secs

     total energy              =   -1006.03607379 Ry
     Harris-Foulkes estimate   =   -1006.31837513 Ry
     estimated scf accuracy    <       2.26496862 Ry

     iteration # 29     ecut=    30.00 Ry     beta= 0.30
     Davidson diagonalization with overlap
     ethr =  8.55E-04,  avg # of iterations =  5.5

     negative rho (up, down):  5.176E-01 0.000E+00

     total cpu time spent up to now is    82338.7 secs

     total energy              =   -1006.25769012 Ry
     Harris-Foulkes estimate   =   -1006.18284590 Ry
     estimated scf accuracy    <       7.09248799 Ry

     iteration # 30     ecut=    30.00 Ry     beta= 0.30
     Davidson diagonalization with overlap
     ethr =  8.55E-04,  avg # of iterations =  2.4

     negative rho (up, down):  5.097E-01 0.000E+00

     total cpu time spent up to now is    85017.9 secs

     total energy              =   -1006.26519044 Ry
     Harris-Foulkes estimate   =   -1006.28953158 Ry
     estimated scf accuracy    <      10.91881066 Ry

     iteration # 31     ecut=    30.00 Ry     beta= 0.30
     Davidson diagonalization with overlap
     ethr =  8.55E-04,  avg # of iterations =  1.2
