
     Program PWSCF v.6.4.1 starts on  6Jun2020 at 22:37:29 

     This program is part of the open-source Quantum ESPRESSO suite
     for quantum simulation of materials; please cite
         "P. Giannozzi et al., J. Phys.:Condens. Matter 21 395502 (2009);
         "P. Giannozzi et al., J. Phys.:Condens. Matter 29 465901 (2017);
          URL http://www.quantum-espresso.org", 
     in publications or presentations arising from this work. More details at
     http://www.quantum-espresso.org/quote

     Parallel version (MPI & OpenMP), running on       1 processor cores
     Number of MPI processes:                 1
     Threads/MPI process:                     1

     MPI processes distributed on     1 nodes
     Reading input from Al_111_H21_br_site_2.pw.in

     Current dimensions of program PWSCF are:
     Max number of different atomic species (ntypx) = 10
     Max number of k-points (npk) =  40000
     Max angular momentum in pseudopotentials (lmaxx) =  3
               file H.pbe-rrkjus.UPF: wavefunction(s)  1S renormalized

     Subspace diagonalization in iterative solution of the eigenvalue problem:
     a serial algorithm will be used

 
     G-vector sticks info
     --------------------
     sticks:   dense  smooth     PW     G-vecs:    dense   smooth      PW
     Sum        2713    2161    583              1657165  1184975  169819
 


     bravais-lattice index     =            4
     lattice parameter (alat)  =      16.1280  a.u.
     unit-cell volume          =   53394.8108 (a.u.)^3
     number of atoms/cell      =           82
     number of atomic types    =            2
     number of electrons       =       244.00
     number of Kohn-Sham states=          146
     kinetic-energy cutoff     =      30.0000  Ry
     charge density cutoff     =     150.0000  Ry
     convergence threshold     =      8.1E-05
     mixing beta               =       0.3000
     number of iterations used =            8  local-TF  mixing
     Exchange-correlation      =  SLA  PW   PBE  PBE ( 1  4  3  4 0 0)
     nstep                     =           50


     celldm(1)=  16.128000  celldm(2)=   0.000000  celldm(3)=  14.696938
     celldm(4)=   0.000000  celldm(5)=   0.000000  celldm(6)=   0.000000

     crystal axes: (cart. coord. in units of alat)
               a(1) = (   1.000000   0.000000   0.000000 )  
               a(2) = (  -0.500000   0.866025   0.000000 )  
               a(3) = (   0.000000   0.000000  14.696938 )  

     reciprocal axes: (cart. coord. in units 2 pi/alat)
               b(1) = (  1.000000  0.577350  0.000000 )  
               b(2) = (  0.000000  1.154701  0.000000 )  
               b(3) = (  0.000000  0.000000  0.068041 )  


     PseudoPot. # 1 for Al read from file:
     ./Al.pbe-n-van.UPF
     MD5 check sum: b11ded24487aef5bc42d5c7a2e22a7b6
     Pseudo is Ultrasoft + core correction, Zval =  3.0
     Generated by new atomic code, or converted to UPF format
     Using radial grid of  893 points,  2 beta functions with: 
                l(1) =   0
                l(2) =   1
     Q(r) pseudized with  8 coefficients,  rinner =    0.900   0.900   0.900


     PseudoPot. # 2 for H  read from file:
     ./H.pbe-rrkjus.UPF
     MD5 check sum: 0433647300470310da31d564c103eed6
     Pseudo is Ultrasoft, Zval =  1.0
     Generated by new atomic code, or converted to UPF format
     Using radial grid of 1061 points,  2 beta functions with: 
                l(1) =   0
                l(2) =   0
     Q(r) pseudized with 0 coefficients 


     atomic species   valence    mass     pseudopotential
        Al             3.00    26.98000     Al( 1.00)
        H              1.00     1.00790     H ( 1.00)

      2 Sym. Ops. (no inversion) found



   Cartesian axes

     site n.     atom                  positions (alat units)
         1           Al  tau(   1) = (   0.1666668   0.0962249   0.8164957  )
         2           Al  tau(   2) = (   0.0000002   0.3849001   0.8164957  )
         3           Al  tau(   3) = (  -0.1666665   0.6735752   0.8164957  )
         4           Al  tau(   4) = (   0.5000001   0.0962249   0.8164957  )
         5           Al  tau(   5) = (   0.3333335   0.3849001   0.8164957  )
         6           Al  tau(   6) = (   0.1666668   0.6735752   0.8164957  )
         7           Al  tau(   7) = (   0.8333335   0.0962249   0.8164957  )
         8           Al  tau(   8) = (   0.6666669   0.3849001   0.8164957  )
         9           Al  tau(   9) = (   0.5000002   0.6735752   0.8164957  )
        10           Al  tau(  10) = (   0.0000000   0.0000000   0.0000000  )
        11           Al  tau(  11) = (  -0.1666667   0.2886751   0.0000000  )
        12           Al  tau(  12) = (  -0.3333333   0.5773503   0.0000000  )
        13           Al  tau(  13) = (   0.3333333   0.0000000   0.0000000  )
        14           Al  tau(  14) = (   0.1666667   0.2886751   0.0000000  )
        15           Al  tau(  15) = (  -0.0000000   0.5773503   0.0000000  )
        16           Al  tau(  16) = (   0.6666667   0.0000000   0.0000000  )
        17           Al  tau(  17) = (   0.5000000   0.2886751   0.0000000  )
        18           Al  tau(  18) = (   0.3333333   0.5773503   0.0000000  )
        19           Al  tau(  19) = (  -0.0000002   0.1924502   1.6329939  )
        20           Al  tau(  20) = (  -0.1666668   0.4811253   1.6329939  )
        21           Al  tau(  21) = (  -0.3333335   0.7698005   1.6329939  )
        22           Al  tau(  22) = (   0.3333332   0.1924502   1.6329939  )
        23           Al  tau(  23) = (   0.1666665   0.4811253   1.6329939  )
        24           Al  tau(  24) = (  -0.0000002   0.7698005   1.6329939  )
        25           Al  tau(  25) = (   0.6666665   0.1924502   1.6329939  )
        26           Al  tau(  26) = (   0.4999999   0.4811253   1.6329939  )
        27           Al  tau(  27) = (   0.3333332   0.7698005   1.6329939  )
        28           Al  tau(  28) = (   0.1666668   0.0962249   3.2659855  )
        29           Al  tau(  29) = (   0.0000002   0.3849001   3.2659855  )
        30           Al  tau(  30) = (  -0.1666665   0.6735752   3.2659855  )
        31           Al  tau(  31) = (   0.5000001   0.0962249   3.2659855  )
        32           Al  tau(  32) = (   0.3333335   0.3849001   3.2659855  )
        33           Al  tau(  33) = (   0.1666668   0.6735752   3.2659855  )
        34           Al  tau(  34) = (   0.8333335   0.0962249   3.2659855  )
        35           Al  tau(  35) = (   0.6666669   0.3849001   3.2659855  )
        36           Al  tau(  36) = (   0.5000002   0.6735752   3.2659855  )
        37           Al  tau(  37) = (   0.0000000   0.0000000   2.4494897  )
        38           Al  tau(  38) = (  -0.1666667   0.2886751   2.4494897  )
        39           Al  tau(  39) = (  -0.3333333   0.5773503   2.4494897  )
        40           Al  tau(  40) = (   0.3333333   0.0000000   2.4494897  )
        41           Al  tau(  41) = (   0.1666667   0.2886751   2.4494897  )
        42           Al  tau(  42) = (  -0.0000000   0.5773503   2.4494897  )
        43           Al  tau(  43) = (   0.6666667   0.0000000   2.4494897  )
        44           Al  tau(  44) = (   0.5000000   0.2886751   2.4494897  )
        45           Al  tau(  45) = (   0.3333333   0.5773503   2.4494897  )
        46           Al  tau(  46) = (  -0.0000002   0.1924502   4.0824837  )
        47           Al  tau(  47) = (  -0.1666668   0.4811253   4.0824837  )
        48           Al  tau(  48) = (  -0.3333335   0.7698005   4.0824837  )
        49           Al  tau(  49) = (   0.3333332   0.1924502   4.0824837  )
        50           Al  tau(  50) = (   0.1666665   0.4811253   4.0824837  )
        51           Al  tau(  51) = (  -0.0000002   0.7698005   4.0824837  )
        52           Al  tau(  52) = (   0.6666665   0.1924502   4.0824837  )
        53           Al  tau(  53) = (   0.4999999   0.4811253   4.0824837  )
        54           Al  tau(  54) = (   0.3333332   0.7698005   4.0824837  )
        55           Al  tau(  55) = (   0.1666668   0.0962249   5.7154752  )
        56           Al  tau(  56) = (   0.0000002   0.3849001   5.7154752  )
        57           Al  tau(  57) = (  -0.1666665   0.6735752   5.7154752  )
        58           Al  tau(  58) = (   0.5000001   0.0962249   5.7154752  )
        59           Al  tau(  59) = (   0.3333335   0.3849001   5.7154752  )
        60           Al  tau(  60) = (   0.1666668   0.6735752   5.7154752  )
        61           Al  tau(  61) = (   0.8333335   0.0962249   5.7154752  )
        62           Al  tau(  62) = (   0.6666669   0.3849001   5.7154752  )
        63           Al  tau(  63) = (   0.5000002   0.6735752   5.7154752  )
        64           Al  tau(  64) = (   0.0000000   0.0000000   4.8989795  )
        65           Al  tau(  65) = (  -0.1666667   0.2886751   4.8989795  )
        66           Al  tau(  66) = (  -0.3333333   0.5773503   4.8989795  )
        67           Al  tau(  67) = (   0.3333333   0.0000000   4.8989795  )
        68           Al  tau(  68) = (   0.1666667   0.2886751   4.8989795  )
        69           Al  tau(  69) = (  -0.0000000   0.5773503   4.8989795  )
        70           Al  tau(  70) = (   0.6666667   0.0000000   4.8989795  )
        71           Al  tau(  71) = (   0.5000000   0.2886751   4.8989795  )
        72           Al  tau(  72) = (   0.3333333   0.5773503   4.8989795  )
        73           Al  tau(  73) = (  -0.0000002   0.1924502   6.5319734  )
        74           Al  tau(  74) = (  -0.1666668   0.4811253   6.5319734  )
        75           Al  tau(  75) = (  -0.3333335   0.7698005   6.5319734  )
        76           Al  tau(  76) = (   0.3333332   0.1924502   6.5319734  )
        77           Al  tau(  77) = (   0.1666665   0.4811253   6.5319734  )
        78           Al  tau(  78) = (  -0.0000002   0.7698005   6.5319734  )
        79           Al  tau(  79) = (   0.6666665   0.1924502   6.5319734  )
        80           Al  tau(  80) = (   0.4999999   0.4811253   6.5319734  )
        81           Al  tau(  81) = (   0.3333332   0.7698005   6.5319734  )
        82           H   tau(  82) = (   0.0833332   0.0481125   6.5319734  )

     number of k points=   111  Marzari-Vanderbilt smearing, width (Ry)=  0.0250

     Number of k-points >= 100: set verbosity='high' to print them.

     Dense  grid:  1657165 G-vectors     FFT dimensions: (  64,  64, 960)

     Smooth grid:  1184975 G-vectors     FFT dimensions: (  60,  60, 864)

     Estimated max dynamical RAM per process >      44.26 GB

     Initial potential from superposition of free atoms

     starting charge  243.70410, renormalised to  244.00000

     negative rho (up, down):  6.294E-04 0.000E+00
     Starting wfcs are  325 randomized atomic wfcs

     total cpu time spent up to now is     6013.0 secs

     Self-consistent Calculation

     iteration #  1     ecut=    30.00 Ry     beta= 0.30
     Davidson diagonalization with overlap
     ethr =  1.00E-02,  avg # of iterations =  3.0

     negative rho (up, down):  6.965E-03 0.000E+00

     total cpu time spent up to now is    16155.4 secs

     total energy              =   -1008.29614669 Ry
     Harris-Foulkes estimate   =   -1011.93243291 Ry
     estimated scf accuracy    <    2286.65535022 Ry

     iteration #  2     ecut=    30.00 Ry     beta= 0.30
     Davidson diagonalization with overlap
     ethr =  1.00E-02,  avg # of iterations =  1.0

     negative rho (up, down):  1.813E-01 0.000E+00

     total cpu time spent up to now is    22768.3 secs

     total energy              =   -1003.54897702 Ry
     Harris-Foulkes estimate   =   -1008.87030351 Ry
     estimated scf accuracy    <    1070.13844118 Ry

     iteration #  3     ecut=    30.00 Ry     beta= 0.30
     Davidson diagonalization with overlap
     ethr =  1.00E-02,  avg # of iterations =  1.2

     negative rho (up, down):  1.796E-01 0.000E+00

     total cpu time spent up to now is    29434.2 secs

     total energy              =   -1006.03889626 Ry
     Harris-Foulkes estimate   =   -1006.02934905 Ry
     estimated scf accuracy    <      37.84295865 Ry

     iteration #  4     ecut=    30.00 Ry     beta= 0.30
     Davidson diagonalization with overlap
     ethr =  1.00E-02,  avg # of iterations =  1.0

     negative rho (up, down):  1.676E-01 0.000E+00

     total cpu time spent up to now is    36084.4 secs

     total energy              =   -1006.08806842 Ry
     Harris-Foulkes estimate   =   -1006.04834849 Ry
     estimated scf accuracy    <      37.91845216 Ry

     iteration #  5     ecut=    30.00 Ry     beta= 0.30
     Davidson diagonalization with overlap
     ethr =  1.00E-02,  avg # of iterations =  1.0

     negative rho (up, down):  1.793E-01 0.000E+00

     total cpu time spent up to now is    42745.1 secs

     total energy              =   -1006.05358294 Ry
     Harris-Foulkes estimate   =   -1006.09070285 Ry
     estimated scf accuracy    <      38.45825906 Ry

     iteration #  6     ecut=    30.00 Ry     beta= 0.30
     Davidson diagonalization with overlap
     ethr =  1.00E-02,  avg # of iterations =  1.0

     negative rho (up, down):  2.364E-01 0.000E+00

     total cpu time spent up to now is    49372.5 secs

     total energy              =   -1005.80481169 Ry
     Harris-Foulkes estimate   =   -1006.05548330 Ry
     estimated scf accuracy    <      37.23501837 Ry

     iteration #  7     ecut=    30.00 Ry     beta= 0.30
     Davidson diagonalization with overlap
     ethr =  1.00E-02,  avg # of iterations =  1.1

     negative rho (up, down):  3.028E-01 0.000E+00

     total cpu time spent up to now is    55972.8 secs

     total energy              =   -1005.33085138 Ry
     Harris-Foulkes estimate   =   -1005.81312244 Ry
     estimated scf accuracy    <      36.24315998 Ry

     iteration #  8     ecut=    30.00 Ry     beta= 0.30
     Davidson diagonalization with overlap
     ethr =  1.00E-02,  avg # of iterations =  2.3

     negative rho (up, down):  3.726E-01 0.000E+00

     total cpu time spent up to now is    62780.0 secs

     total energy              =   -1005.16925870 Ry
     Harris-Foulkes estimate   =   -1005.51211727 Ry
     estimated scf accuracy    <      19.12815711 Ry

     iteration #  9     ecut=    30.00 Ry     beta= 0.30
     Davidson diagonalization with overlap
     c_bands:  2 eigenvalues not converged
     c_bands:  2 eigenvalues not converged
     c_bands:  3 eigenvalues not converged
     c_bands:  3 eigenvalues not converged
     ethr =  7.84E-03,  avg # of iterations =  7.5

     negative rho (up, down):  3.145E-01 0.000E+00

     total cpu time spent up to now is    71113.0 secs

     total energy              =   -1006.87630901 Ry
     Harris-Foulkes estimate   =   -1007.16801921 Ry
     estimated scf accuracy    <     103.14941031 Ry

     iteration # 10     ecut=    30.00 Ry     beta= 0.30
     Davidson diagonalization with overlap
     ethr =  7.84E-03,  avg # of iterations =  2.4

     negative rho (up, down):  3.790E-01 0.000E+00

     total cpu time spent up to now is    77970.1 secs

     total energy              =   -1007.32605067 Ry
     Harris-Foulkes estimate   =   -1007.08152176 Ry
     estimated scf accuracy    <     124.23847602 Ry

     iteration # 11     ecut=    30.00 Ry     beta= 0.30
     Davidson diagonalization with overlap
     ethr =  7.84E-03,  avg # of iterations =  2.5

     negative rho (up, down):  1.995E-01 0.000E+00

     total cpu time spent up to now is    84821.5 secs

     total energy              =   -1006.41670421 Ry
     Harris-Foulkes estimate   =   -1007.58240208 Ry
     estimated scf accuracy    <     183.82272913 Ry

     iteration # 12     ecut=    30.00 Ry     beta= 0.30
     Davidson diagonalization with overlap
