--------------------------------------------------------------------------
[[19452,1],0]: A high-performance Open MPI point-to-point messaging module
was unable to find any relevant network interfaces:

Module: OpenFabrics (openib)
  Host: ubuntu

Another transport will be used instead, although this may result in
lower performance.
--------------------------------------------------------------------------

     Program PWSCF v.5.1 starts on 28May2020 at 17:51:32 

     This program is part of the open-source Quantum ESPRESSO suite
     for quantum simulation of materials; please cite
         "P. Giannozzi et al., J. Phys.:Condens. Matter 21 395502 (2009);
          URL http://www.quantum-espresso.org", 
     in publications or presentations arising from this work. More details at
     http://www.quantum-espresso.org/quote

     Parallel version (MPI), running on     1 processors
     Reading input from Al_100_surf_vac_3.pw.in

     Current dimensions of program PWSCF are:
     Max number of different atomic species (ntypx) = 10
     Max number of k-points (npk) =  40000
     Max angular momentum in pseudopotentials (lmaxx) =  3

     Subspace diagonalization in iterative solution of the eigenvalue problem:
     a serial algorithm will be used

     Found symmetry operation: I + ( -0.5000 -0.5000  0.0000)
     This is a supercell, fractional translations are disabled

     G-vector sticks info
     --------------------
     sticks:   dense  smooth     PW     G-vecs:    dense   smooth      PW
     Sum         681     681    421                68149    68149   32199



     bravais-lattice index     =            6
     lattice parameter (alat)  =       7.6050  a.u.
     unit-cell volume          =    2199.2149 (a.u.)^3
     number of atoms/cell      =            8
     number of atomic types    =            1
     number of electrons       =        24.00
     number of Kohn-Sham states=           16
     kinetic-energy cutoff     =      80.0000  Ry
     charge density cutoff     =     150.0000  Ry
     convergence threshold     =      1.0E-06
     mixing beta               =       0.3000
     number of iterations used =            8  local-TF  mixing
     Exchange-correlation      =  SLA  PW   PBE  PBE ( 1  4  3  4 0)
     nstep                     =           50


     celldm(1)=   7.605000  celldm(2)=   0.000000  celldm(3)=   5.000000
     celldm(4)=   0.000000  celldm(5)=   0.000000  celldm(6)=   0.000000

     crystal axes: (cart. coord. in units of alat)
               a(1) = (   1.000000   0.000000   0.000000 )  
               a(2) = (   0.000000   1.000000   0.000000 )  
               a(3) = (   0.000000   0.000000   5.000000 )  

     reciprocal axes: (cart. coord. in units 2 pi/alat)
               b(1) = (  1.000000  0.000000  0.000000 )  
               b(2) = (  0.000000  1.000000  0.000000 )  
               b(3) = (  0.000000  0.000000  0.200000 )  


     PseudoPot. # 1 for Al read from file:
     ./Al.pbe-n-van.UPF
     MD5 check sum: b11ded24487aef5bc42d5c7a2e22a7b6
     Pseudo is Ultrasoft + core correction, Zval =  3.0
     Generated by new atomic code, or converted to UPF format
     Using radial grid of  893 points,  2 beta functions with: 
                l(1) =   0
                l(2) =   1
     Q(r) pseudized with  8 coefficients,  rinner =    0.900   0.900   0.900


     atomic species   valence    mass     pseudopotential
        Al             3.00    26.98000     Al( 1.00)

      8 Sym. Ops. (no inversion) found



   Cartesian axes

     site n.     atom                  positions (alat units)
         1           Al  tau(   1) = (   0.0000000   0.0000000   0.0000000  )
         2           Al  tau(   2) = (   0.5000000   0.5000000   0.0000000  )
         3           Al  tau(   3) = (   0.5000000   0.0000000   0.5000000  )
         4           Al  tau(   4) = (   0.0000000   0.5000000   0.5000000  )
         5           Al  tau(   5) = (   0.0000000   0.0000000   1.0000000  )
         6           Al  tau(   6) = (   0.5000000   0.5000000   1.0000000  )
         7           Al  tau(   7) = (   0.5000000   0.0000000   1.5000000  )
         8           Al  tau(   8) = (   0.0000000   0.5000000   1.5000000  )

     number of k points=    45  Marzari-Vanderbilt smearing, width (Ry)=  0.0250
                       cart. coord. in units 2pi/alat
        k(    1) = (   0.0000000   0.0000000   0.0000000), wk =   0.0078125
        k(    2) = (   0.0000000   0.0625000   0.0000000), wk =   0.0312500
        k(    3) = (   0.0000000   0.1250000   0.0000000), wk =   0.0312500
        k(    4) = (   0.0000000   0.1875000   0.0000000), wk =   0.0312500
        k(    5) = (   0.0000000   0.2500000   0.0000000), wk =   0.0312500
        k(    6) = (   0.0000000   0.3125000   0.0000000), wk =   0.0312500
        k(    7) = (   0.0000000   0.3750000   0.0000000), wk =   0.0312500
        k(    8) = (   0.0000000   0.4375000   0.0000000), wk =   0.0312500
        k(    9) = (   0.0000000  -0.5000000   0.0000000), wk =   0.0156250
        k(   10) = (   0.0625000   0.0625000   0.0000000), wk =   0.0312500
        k(   11) = (   0.0625000   0.1250000   0.0000000), wk =   0.0625000
        k(   12) = (   0.0625000   0.1875000   0.0000000), wk =   0.0625000
        k(   13) = (   0.0625000   0.2500000   0.0000000), wk =   0.0625000
        k(   14) = (   0.0625000   0.3125000   0.0000000), wk =   0.0625000
        k(   15) = (   0.0625000   0.3750000   0.0000000), wk =   0.0625000
        k(   16) = (   0.0625000   0.4375000   0.0000000), wk =   0.0625000
        k(   17) = (   0.0625000  -0.5000000   0.0000000), wk =   0.0312500
        k(   18) = (   0.1250000   0.1250000   0.0000000), wk =   0.0312500
        k(   19) = (   0.1250000   0.1875000   0.0000000), wk =   0.0625000
        k(   20) = (   0.1250000   0.2500000   0.0000000), wk =   0.0625000
        k(   21) = (   0.1250000   0.3125000   0.0000000), wk =   0.0625000
        k(   22) = (   0.1250000   0.3750000   0.0000000), wk =   0.0625000
        k(   23) = (   0.1250000   0.4375000   0.0000000), wk =   0.0625000
        k(   24) = (   0.1250000  -0.5000000   0.0000000), wk =   0.0312500
        k(   25) = (   0.1875000   0.1875000   0.0000000), wk =   0.0312500
        k(   26) = (   0.1875000   0.2500000   0.0000000), wk =   0.0625000
        k(   27) = (   0.1875000   0.3125000   0.0000000), wk =   0.0625000
        k(   28) = (   0.1875000   0.3750000   0.0000000), wk =   0.0625000
        k(   29) = (   0.1875000   0.4375000   0.0000000), wk =   0.0625000
        k(   30) = (   0.1875000  -0.5000000   0.0000000), wk =   0.0312500
        k(   31) = (   0.2500000   0.2500000   0.0000000), wk =   0.0312500
        k(   32) = (   0.2500000   0.3125000   0.0000000), wk =   0.0625000
        k(   33) = (   0.2500000   0.3750000   0.0000000), wk =   0.0625000
        k(   34) = (   0.2500000   0.4375000   0.0000000), wk =   0.0625000
        k(   35) = (   0.2500000  -0.5000000   0.0000000), wk =   0.0312500
        k(   36) = (   0.3125000   0.3125000   0.0000000), wk =   0.0312500
        k(   37) = (   0.3125000   0.3750000   0.0000000), wk =   0.0625000
        k(   38) = (   0.3125000   0.4375000   0.0000000), wk =   0.0625000
        k(   39) = (   0.3125000  -0.5000000   0.0000000), wk =   0.0312500
        k(   40) = (   0.3750000   0.3750000   0.0000000), wk =   0.0312500
        k(   41) = (   0.3750000   0.4375000   0.0000000), wk =   0.0625000
        k(   42) = (   0.3750000  -0.5000000   0.0000000), wk =   0.0312500
        k(   43) = (   0.4375000   0.4375000   0.0000000), wk =   0.0312500
        k(   44) = (   0.4375000  -0.5000000   0.0000000), wk =   0.0312500
        k(   45) = (  -0.5000000  -0.5000000   0.0000000), wk =   0.0078125

     Dense  grid:    68149 G-vectors     FFT dimensions: (  30,  30, 150)

     Largest allocated arrays     est. size (Mb)     dimensions
        Kohn-Sham Wavefunctions         6.51 Mb     (   26666,   16)
        NL pseudopotentials            13.02 Mb     (   26666,   32)
        Each V/rho on FFT grid          2.06 Mb     (  135000)
        Each G-vector array             0.52 Mb     (   68149)
        G-vector shells                 0.01 Mb     (    1894)
     Largest temporary arrays     est. size (Mb)     dimensions
        Auxiliary wavefunctions        26.04 Mb     (   26666,   64)
        Each subspace H/S matrix        0.06 Mb     (      64,   64)
        Each <psi_i|beta_j> matrix      0.01 Mb     (      32,   16)
        Arrays for rho mixing          16.48 Mb     (  135000,    8)

     Initial potential from superposition of free atoms

     starting charge   23.98028, renormalised to   24.00000

     negative rho (up, down):  2.557E-05 0.000E+00
     Starting wfc are   32 randomized atomic wfcs

     total cpu time spent up to now is       29.5 secs

     per-process dynamical memory:   347.4 Mb

     Self-consistent Calculation

     iteration #  1     ecut=    80.00 Ry     beta=0.30
     Davidson diagonalization with overlap
     ethr =  1.00E-02,  avg # of iterations =  2.8

     total cpu time spent up to now is       86.5 secs

     total energy              =     -99.64230426 Ry
     Harris-Foulkes estimate   =     -99.67598749 Ry
     estimated scf accuracy    <       0.56671568 Ry

     iteration #  2     ecut=    80.00 Ry     beta=0.30
     Davidson diagonalization with overlap
     ethr =  2.36E-03,  avg # of iterations =  1.0

     negative rho (up, down):  3.475E-05 0.000E+00

     total cpu time spent up to now is      120.7 secs

     total energy              =     -99.51725916 Ry
     Harris-Foulkes estimate   =     -99.64911106 Ry
     estimated scf accuracy    <       0.42656545 Ry

     iteration #  3     ecut=    80.00 Ry     beta=0.30
     Davidson diagonalization with overlap
     ethr =  1.78E-03,  avg # of iterations =  2.3

     total cpu time spent up to now is      160.6 secs

     total energy              =     -99.57606829 Ry
     Harris-Foulkes estimate   =     -99.61381342 Ry
     estimated scf accuracy    <       0.17730643 Ry

     iteration #  4     ecut=    80.00 Ry     beta=0.30
     Davidson diagonalization with overlap
     ethr =  7.39E-04,  avg # of iterations =  2.0

     total cpu time spent up to now is      197.5 secs

     total energy              =     -99.58936743 Ry
     Harris-Foulkes estimate   =     -99.59258104 Ry
     estimated scf accuracy    <       0.01420902 Ry

     iteration #  5     ecut=    80.00 Ry     beta=0.30
     Davidson diagonalization with overlap
     ethr =  5.92E-05,  avg # of iterations =  3.6

     total cpu time spent up to now is      240.3 secs

     total energy              =     -99.59015377 Ry
     Harris-Foulkes estimate   =     -99.59124414 Ry
     estimated scf accuracy    <       0.01173024 Ry

     iteration #  6     ecut=    80.00 Ry     beta=0.30
     Davidson diagonalization with overlap
     ethr =  4.89E-05,  avg # of iterations =  2.2

     total cpu time spent up to now is      282.7 secs

     total energy              =     -99.57927113 Ry
     Harris-Foulkes estimate   =     -99.59297848 Ry
     estimated scf accuracy    <       0.05673428 Ry

     iteration #  7     ecut=    80.00 Ry     beta=0.30
     Davidson diagonalization with overlap
     ethr =  4.89E-05,  avg # of iterations =  3.1

     negative rho (up, down):  4.027E-03 0.000E+00

     total cpu time spent up to now is      332.7 secs

     total energy              =     -99.59076369 Ry
     Harris-Foulkes estimate   =     -99.59111509 Ry
     estimated scf accuracy    <       0.02124242 Ry

     iteration #  8     ecut=    80.00 Ry     beta=0.30
     Davidson diagonalization with overlap
     ethr =  4.89E-05,  avg # of iterations =  1.6

     negative rho (up, down):  2.624E-03 0.000E+00

     total cpu time spent up to now is      368.4 secs

     total energy              =     -99.58772284 Ry
     Harris-Foulkes estimate   =     -99.59114313 Ry
     estimated scf accuracy    <       0.03186164 Ry

     iteration #  9     ecut=    80.00 Ry     beta=0.30
     Davidson diagonalization with overlap
     ethr =  4.89E-05,  avg # of iterations =  1.4

     negative rho (up, down):  2.173E-03 0.000E+00

     total cpu time spent up to now is      404.5 secs

     total energy              =     -99.58706198 Ry
     Harris-Foulkes estimate   =     -99.58854923 Ry
     estimated scf accuracy    <       0.00822244 Ry

     iteration # 10     ecut=    80.00 Ry     beta=0.30
     Davidson diagonalization with overlap
     ethr =  3.43E-05,  avg # of iterations =  2.0

     negative rho (up, down):  1.981E-04 0.000E+00

     total cpu time spent up to now is      444.7 secs

     total energy              =     -99.58803410 Ry
     Harris-Foulkes estimate   =     -99.58807429 Ry
     estimated scf accuracy    <       0.00023997 Ry

     iteration # 11     ecut=    80.00 Ry     beta=0.30
     Davidson diagonalization with overlap
     ethr =  1.00E-06,  avg # of iterations =  2.9

     negative rho (up, down):  1.073E-04 0.000E+00

     total cpu time spent up to now is      490.4 secs

     total energy              =     -99.58808813 Ry
     Harris-Foulkes estimate   =     -99.58810198 Ry
     estimated scf accuracy    <       0.00011360 Ry

     iteration # 12     ecut=    80.00 Ry     beta=0.30
     Davidson diagonalization with overlap
     ethr =  4.73E-07,  avg # of iterations =  2.0

     negative rho (up, down):  3.263E-08 0.000E+00

     total cpu time spent up to now is      531.6 secs

     total energy              =     -99.58811345 Ry
     Harris-Foulkes estimate   =     -99.58811432 Ry
     estimated scf accuracy    <       0.00004417 Ry

     iteration # 13     ecut=    80.00 Ry     beta=0.30
     Davidson diagonalization with overlap
     ethr =  1.84E-07,  avg # of iterations =  1.0

     negative rho (up, down):  6.680E-06 0.000E+00

     total cpu time spent up to now is      566.1 secs

     total energy              =     -99.58810753 Ry
     Harris-Foulkes estimate   =     -99.58811387 Ry
     estimated scf accuracy    <       0.00003692 Ry

     iteration # 14     ecut=    80.00 Ry     beta=0.30
     Davidson diagonalization with overlap
     ethr =  1.54E-07,  avg # of iterations =  2.0

     negative rho (up, down):  7.719E-07 0.000E+00

     total cpu time spent up to now is      606.2 secs

     End of self-consistent calculation

          k = 0.0000 0.0000 0.0000 ( 26609 PWs)   bands (ev):

   -10.0737  -8.6761  -6.4879  -3.6190  -1.8263  -1.8263  -1.2948  -0.5373
    -0.5373  -0.4500  -0.4500   0.9894   0.9894   1.5093   1.5093   2.1818

          k = 0.0000 0.0625 0.0000 ( 26567 PWs)   bands (ev):

   -10.0380  -8.6406  -6.4529  -3.5843  -2.3897  -1.7935  -1.2616  -1.0832
    -0.5045  -0.3898   0.1610   0.9512   1.0878   1.5419   1.5663   2.2143

          k = 0.0000 0.1250 0.0000 ( 26551 PWs)   bands (ev):

    -9.9309  -8.5344  -6.3478  -3.4801  -3.2876  -1.9564  -1.6950  -1.1621
    -0.4062  -0.2853   0.1351   1.0093   1.3837   1.6399   2.3107   2.5759

          k = 0.0000 0.1875 0.0000 ( 26600 PWs)   bands (ev):

    -9.7527  -8.3576  -6.1730  -4.1825  -3.3068  -2.8373  -1.5310  -0.9964
    -0.7265  -0.2423  -0.1167   1.2535   1.8031   2.0116   2.4676   2.4993

          k = 0.0000 0.2500 0.0000 ( 26524 PWs)   bands (ev):

    -9.5035  -8.1103  -5.9285  -5.0305  -3.6755  -3.0648  -1.5506  -1.3013
    -0.7647  -0.0128   0.1102   1.2557   1.4916   2.0317   2.6733   2.9019

          k = 0.0000 0.3125 0.0000 ( 26528 PWs)   bands (ev):

    -9.1838  -7.7931  -5.8206  -5.6148  -4.4578  -2.7545  -2.3213  -1.0060
    -0.4673   0.2822   0.2840   0.6484   1.7708   2.1466   2.3254   2.7273

          k = 0.0000 0.3750 0.0000 ( 26568 PWs)   bands (ev):

    -8.7939  -7.4063  -6.5481  -5.2325  -5.1788  -3.0324  -2.3770  -0.6449
    -0.2372  -0.1050   0.6428   0.8496   1.4568   1.8611   2.3337   2.6844

          k = 0.0000 0.4375 0.0000 ( 26588 PWs)   bands (ev):

    -8.3346  -7.2107  -6.9506  -5.8357  -4.7822  -3.6809  -1.9334  -0.8566
    -0.2181   0.3212   0.8328   1.0690   1.2672   1.3488   2.1180   2.2755

          k = 0.0000-0.5000 0.0000 ( 26558 PWs)   bands (ev):

    -7.8066  -7.8066  -6.4268  -6.4268  -4.2646  -4.2646  -1.4254  -1.4254
     0.2745   0.2745   0.8086   0.8086   1.5607   1.5607   1.7505   1.7505

          k = 0.0625 0.0625 0.0000 ( 26537 PWs)   bands (ev):

   -10.0023  -8.6052  -6.4179  -3.5495  -2.3568  -2.3568  -1.2284  -1.0411
    -1.0411   0.2209   0.2209   1.0249   1.0249   1.6151   1.6151   2.2460

          k = 0.0625 0.1250 0.0000 ( 26552 PWs)   bands (ev):

    -9.8953  -8.4990  -6.3129  -3.4455  -3.2540  -2.2629  -1.9112  -1.1290
    -0.9394   0.1725   0.3295   1.1238   1.2654   1.7472   2.3393   2.6488

          k = 0.0625 0.1875 0.0000 ( 26573 PWs)   bands (ev):

    -9.7171  -8.3222  -6.1380  -4.1484  -3.2722  -2.8058  -2.0832  -0.9634
    -0.7837  -0.6801   0.4948   1.2738   1.8294   2.1092   2.4780   2.5397

          k = 0.0625 0.2500 0.0000 ( 26585 PWs)   bands (ev):

    -9.4680  -8.0751  -5.8936  -4.9962  -3.6419  -3.0303  -1.8523  -1.5175
    -0.7319  -0.5383   0.7008   1.2458   1.6136   2.0704   2.3173   2.8099

          k = 0.0625 0.3125 0.0000 ( 26555 PWs)   bands (ev):

    -9.1483  -7.7579  -5.7860  -5.5801  -4.4236  -2.7203  -2.2876  -1.5538
    -0.4349  -0.2410   0.4683   1.0960   1.6135   1.8488   2.3090   2.7907

          k = 0.0625 0.3750 0.0000 ( 26555 PWs)   bands (ev):

    -8.7586  -7.3712  -6.5133  -5.1978  -5.1443  -2.9984  -2.3431  -1.1908
    -0.1863  -0.0734   0.1216   0.9314   1.4339   1.9886   2.2006   2.2397

          k = 0.0625 0.4375 0.0000 ( 26574 PWs)   bands (ev):

    -8.2993  -7.1757  -6.9156  -5.8011  -4.7476  -3.6467  -1.9001  -0.8688
    -0.7031   0.3080   0.3502   0.5455   1.4067   1.6195   1.8539   2.6213

          k = 0.0625-0.5000 0.0000 ( 26598 PWs)   bands (ev):

    -7.7714  -7.7714  -6.3919  -6.3919  -4.2302  -4.2302  -1.3941  -1.3941
    -0.2510  -0.2510   0.8079   0.8079   1.0916   1.0916   2.3303   2.3303

          k = 0.1250 0.1250 0.0000 ( 26551 PWs)   bands (ev):

    -9.7883  -8.3929  -6.2079  -3.3415  -3.1537  -3.1537  -1.8138  -1.8138
    -1.0297   0.2707   0.2707   1.3988   1.3988   2.4104   2.7586   2.7586

          k = 0.1250 0.1875 0.0000 ( 26552 PWs)   bands (ev):

    -9.6103  -8.2163  -6.0332  -4.0464  -3.1686  -2.9966  -2.6832  -1.6469
    -0.8645  -0.5914   0.4292   1.5523   2.2319   2.2329   2.5465   2.7427

          k = 0.1250 0.2500 0.0000 ( 26563 PWs)   bands (ev):

    -9.3613  -7.9693  -5.7891  -4.8931  -3.5427  -2.9271  -2.7387  -1.4473
    -1.3796  -0.6336   0.6295   1.3924   1.5008   1.8680   2.8282   2.8914

          k = 0.1250 0.3125 0.0000 ( 26555 PWs)   bands (ev):

    -9.0419  -7.6523  -5.6822  -5.4758  -4.3214  -2.6178  -2.4388  -2.1867
    -1.1090  -0.3380   0.5312   0.7601   1.0758   2.0825   2.1319   2.6987

          k = 0.1250 0.3750 0.0000 ( 26573 PWs)   bands (ev):

    -8.6525  -7.2660  -6.4089  -5.0939  -5.0410  -2.8965  -2.2417  -2.0704
    -0.7426  -0.0937   0.0197   0.0717   1.3770   1.3985   2.0955   2.4845

          k = 0.1250 0.4375 0.0000 ( 26557 PWs)   bands (ev):

    -8.1936  -7.0707  -6.8107  -5.6971  -4.6440  -3.5441  -1.8016  -1.6386
    -0.7108  -0.5549  -0.3117   0.4131   0.8045   1.5026   1.7925   2.8175

          k = 0.1250-0.5000 0.0000 ( 26554 PWs)   bands (ev):

    -7.6660  -7.6660  -6.2874  -6.2874  -4.1270  -4.1270  -1.3276  -1.3276
    -1.0881  -1.0881   0.1762   0.1762   0.9666   0.9666   2.2769   2.2769

          k = 0.1875 0.1875 0.0000 ( 26561 PWs)   bands (ev):

    -9.4324  -8.0398  -5.8588  -3.8772  -3.8772  -2.9962  -2.5251  -2.5251
    -0.6999  -0.4284  -0.4284   1.4517   2.3088   2.3088   2.7832   2.8124

          k = 0.1875 0.2500 0.0000 ( 26541 PWs)   bands (ev):

    -9.1838  -7.7931  -5.6149  -4.7217  -3.6526  -3.3480  -2.7555  -2.2899
    -1.2487  -0.4707  -0.2042   0.6529   1.5614   1.9802   2.5150   3.0210

          k = 0.1875 0.3125 0.0000 ( 26566 PWs)   bands (ev):

    -8.8648  -7.4766  -5.5094  -5.3021  -4.1531  -3.3223  -2.4475  -2.0326
    -1.9707  -0.1793  -0.0992   0.0579   0.8617   1.2338   2.5822   3.1359

          k = 0.1875 0.3750 0.0000 ( 26569 PWs)   bands (ev):

    -8.4758  -7.0907  -6.2351  -4.9207  -4.8694  -2.9526  -2.7270  -2.0746
    -1.6152  -0.7923   0.0038   0.1480   0.5749   0.5928   2.1982   2.5912

          k = 0.1875 0.4375 0.0000 ( 26566 PWs)   bands (ev):

    -8.0175  -6.8960  -6.6361  -5.5241  -4.4715  -3.3733  -2.5145  -1.6624
    -1.3980  -1.1798  -0.5603  -0.1267   0.6427   0.9560   1.6450   1.9870

          k = 0.1875-0.5000 0.0000 ( 26550 PWs)   bands (ev):

    -7.4906  -7.4906  -6.1135  -6.1135  -3.9554  -3.9554  -2.0135  -2.0135
    -1.1143  -1.1143  -0.6806  -0.6806   1.1130   1.1130   1.4370   1.4370

          k = 0.2500 0.2500 0.0000 ( 26595 PWs)   bands (ev):

    -8.9356  -7.5469  -5.3716  -4.4829  -4.4829  -3.1234  -3.1234  -2.5163
    -1.0181  -1.0181  -0.2457  -0.1586   1.1761   1.7725   1.7725   3.0754

          k = 0.2500 0.3125 0.0000 ( 26582 PWs)   bands (ev):

    -8.6171  -7.2310  -5.2681  -5.0593  -4.1890  -3.8884  -2.8191  -2.2115
    -1.7825  -0.9160  -0.7267   0.0152   0.4544   1.0536   2.0117   2.4724

          k = 0.2500 0.3750 0.0000 ( 26571 PWs)   bands (ev):

    -8.2288  -6.8458  -5.9922  -4.6788  -4.6315  -3.7883  -2.4961  -2.4398
    -1.8644  -1.5908  -0.3998  -0.3155   0.4104   0.4466   1.8046   2.1294

          k = 0.2500 0.4375 0.0000 ( 26591 PWs)   bands (ev):

    -7.7713  -6.6518  -6.3920  -5.2826  -4.2305  -3.3489  -3.1348  -2.2715
    -2.0070  -1.3859  -0.9356  -0.3986   0.2136   0.8505   1.1893   1.8059

          k = 0.2500-0.5000 0.0000 ( 26572 PWs)   bands (ev):

    -7.2453  -7.2453  -5.8705  -5.8705  -3.7154  -3.7154  -2.8414  -2.8414
    -1.5028  -1.5028  -0.8976  -0.8976   0.6422   0.6422   1.3173   1.3173

          k = 0.3125 0.3125 0.0000 ( 26611 PWs)   bands (ev):

    -8.2993  -6.9157  -4.9593  -4.9593  -4.7479  -3.5950  -3.5950  -1.9319
    -1.6558  -1.4835  -1.4835  -0.3792   0.3811   1.3233   1.3233   1.7429

          k = 0.3125 0.3750 0.0000 ( 26595 PWs)   bands (ev):

    -7.9119  -6.5315  -5.6807  -4.5954  -4.3683  -4.2973  -3.2214  -2.4020
    -2.1863  -1.5223  -1.1241  -1.0649   0.6625   0.7188   1.0633   1.6248

          k = 0.3125 0.4375 0.0000 ( 26596 PWs)   bands (ev):

    -7.4554  -6.3386  -6.0789  -4.9749  -4.1252  -3.9213  -3.0399  -2.8310
    -2.7775  -1.6994  -1.1011  -0.7310   0.0825   0.4505   1.1197   1.8027

          k = 0.3125-0.5000 0.0000 ( 26580 PWs)   bands (ev):

    -6.9306  -6.9306  -5.5590  -5.5590  -3.6163  -3.6163  -3.4078  -3.4078
    -2.2718  -2.2718  -0.6687  -0.6687  -0.0439  -0.0439   1.5426   1.5426

          k = 0.3750 0.3750 0.0000 ( 26618 PWs)   bands (ev):

    -7.5255  -6.1484  -5.3018  -5.3018  -3.9900  -3.9345  -3.9345  -3.1064
    -1.8187  -1.8187  -1.7653  -1.1691   0.3862   0.9973   0.9973   1.0537

          k = 0.3750 0.4375 0.0000 ( 26586 PWs)   bands (ev):

    -7.0702  -5.9568  -5.6976  -4.8678  -4.5715  -3.7507  -3.5446  -3.4916
    -2.4569  -2.4050  -1.3911  -0.8043  -0.1738   0.3989   1.3641   1.4107

          k = 0.3750-0.5000 0.0000 ( 26618 PWs)   bands (ev):

    -6.5470  -6.5470  -5.1815  -5.1815  -4.3285  -4.3285  -3.0336  -3.0336
    -2.9805  -2.9805  -0.9311  -0.9311  -0.1159  -0.1159   1.6058   1.6058

          k = 0.4375 0.4375 0.0000 ( 26638 PWs)   bands (ev):

    -6.6165  -5.5080  -5.5080  -5.2505  -4.3965  -4.1391  -4.1391  -3.1015
    -3.0482  -2.0206  -2.0206  -0.9979  -0.1822   0.8001   0.8001   1.5401

          k = 0.4375-0.5000 0.0000 ( 26666 PWs)   bands (ev):

    -6.0952  -6.0952  -5.0045  -5.0045  -4.7089  -4.7089  -3.6272  -3.6272
    -2.5925  -2.5925  -1.5252  -1.5252   0.2665   0.2665   1.2331   1.2331

          k =-0.5000-0.5000 0.0000 ( 26616 PWs)   bands (ev):

    -5.5769  -5.5769  -5.5769  -5.5769  -4.2074  -4.2074  -4.2074  -4.2074
    -2.0881  -2.0881  -2.0881  -2.0881   0.7342   0.7342   0.7342   0.7342

     the Fermi energy is     0.6711 ev

!    total energy              =     -99.58811131 Ry
     Harris-Foulkes estimate   =     -99.58811155 Ry
     estimated scf accuracy    <       0.00000046 Ry

     The total energy is the sum of the following terms:

     one-electron contribution =    -261.71405263 Ry
     hartree contribution      =     136.39697548 Ry
     xc contribution           =     -79.85017259 Ry
     ewald contribution        =     105.57893421 Ry
     smearing contrib. (-TS)   =       0.00020422 Ry

     convergence has been achieved in  14 iterations

     Forces acting on atoms (Ry/au):


     negative rho (up, down):  7.719E-07 0.000E+00
     atom    1 type  1   force =     0.00000000    0.00000000   -0.00503328
     atom    2 type  1   force =     0.00000000    0.00000000   -0.00503332
     atom    3 type  1   force =     0.00000000    0.00000000    0.00127798
     atom    4 type  1   force =     0.00000000    0.00000000    0.00127798
     atom    5 type  1   force =     0.00000000    0.00000000   -0.00127800
     atom    6 type  1   force =     0.00000000    0.00000000   -0.00127812
     atom    7 type  1   force =     0.00000000    0.00000000    0.00503339
     atom    8 type  1   force =     0.00000000    0.00000000    0.00503339

     Total force =     0.010386     Total SCF correction =     0.001088
     SCF correction compared to forces is large: reduce conv_thr to get better values


     entering subroutine stress ...


     negative rho (up, down):  7.719E-07 0.000E+00
          total   stress  (Ry/bohr**3)                   (kbar)     P=   -8.69
  -0.00011218   0.00000000   0.00000000        -16.50      0.00      0.00
   0.00000000  -0.00011218   0.00000000          0.00    -16.50      0.00
   0.00000000   0.00000000   0.00004709          0.00      0.00      6.93


     BFGS Geometry Optimization

     number of scf cycles    =   1
     number of bfgs steps    =   0

     energy   new            =     -99.5881113136 Ry

     new trust radius        =       0.0050333869 bohr
     new conv_thr            =       0.0000010000 Ry


ATOMIC_POSITIONS (crystal)
Al       0.000000000   0.000000000  -0.000132368
Al       0.500000000   0.500000000  -0.000132369
Al       0.500000000   0.000000000   0.100033609
Al       0.000000000   0.500000000   0.100033609
Al       0.000000000   0.000000000   0.199966390
Al       0.500000000   0.500000000   0.199966387
Al       0.500000000   0.000000000   0.300132370
Al       0.000000000   0.500000000   0.300132370



     Writing output data file Al_100_2_3.save
     NEW-OLD atomic charge density approx. for the potential

     negative rho (up, down):  7.052E-07 0.000E+00

     total cpu time spent up to now is      626.3 secs

     per-process dynamical memory:   377.2 Mb

     Self-consistent Calculation

     iteration #  1     ecut=    80.00 Ry     beta=0.30
     Davidson diagonalization with overlap
     ethr =  1.00E-06,  avg # of iterations =  2.0

     negative rho (up, down):  2.919E-07 0.000E+00

     total cpu time spent up to now is      672.7 secs

     total energy              =     -99.58821488 Ry
     Harris-Foulkes estimate   =     -99.58821625 Ry
     estimated scf accuracy    <       0.00002431 Ry

     iteration #  2     ecut=    80.00 Ry     beta=0.30
     Davidson diagonalization with overlap
     ethr =  1.01E-07,  avg # of iterations =  1.6

     negative rho (up, down):  1.847E-08 0.000E+00

     total cpu time spent up to now is      708.8 secs

     total energy              =     -99.58821219 Ry
     Harris-Foulkes estimate   =     -99.58821584 Ry
     estimated scf accuracy    <       0.00001490 Ry

     iteration #  3     ecut=    80.00 Ry     beta=0.30
     Davidson diagonalization with overlap
     ethr =  6.21E-08,  avg # of iterations =  2.0

     negative rho (up, down):  3.066E-08 0.000E+00

     total cpu time spent up to now is      749.4 secs

     total energy              =     -99.58821448 Ry
     Harris-Foulkes estimate   =     -99.58821470 Ry
     estimated scf accuracy    <       0.00000159 Ry

     iteration #  4     ecut=    80.00 Ry     beta=0.30
     Davidson diagonalization with overlap
     ethr =  6.63E-09,  avg # of iterations =  1.5

     negative rho (up, down):  7.551E-07 0.000E+00

     total cpu time spent up to now is      784.7 secs

     End of self-consistent calculation

          k = 0.0000 0.0000 0.0000 ( 26609 PWs)   bands (ev):

   -10.0728  -8.6715  -6.4925  -3.6249  -1.8252  -1.8252  -1.3008  -0.5315
    -0.5315  -0.4491  -0.4491   0.9936   0.9936   1.5044   1.5044   2.1736

          k = 0.0000 0.0625 0.0000 ( 26567 PWs)   bands (ev):

   -10.0371  -8.6360  -6.4575  -3.5902  -2.3887  -1.7924  -1.2676  -1.0780
    -0.4988  -0.3889   0.1621   0.9504   1.0879   1.5370   1.5709   2.2060

          k = 0.0000 0.1250 0.0000 ( 26551 PWs)   bands (ev):

    -9.9300  -8.5298  -6.3525  -3.4860  -3.2866  -1.9514  -1.6940  -1.1681
    -0.4004  -0.2844   0.1309   1.0120   1.3856   1.6350   2.3025   2.5790

          k = 0.0000 0.1875 0.0000 ( 26600 PWs)   bands (ev):

    -9.7518  -8.3530  -6.1776  -4.1815  -3.3127  -2.8324  -1.5299  -1.0023
    -0.7309  -0.2365  -0.1158   1.2572   1.7982   2.0058   2.4595   2.5003

          k = 0.0000 0.2500 0.0000 ( 26524 PWs)   bands (ev):

    -9.5026  -8.1057  -5.9331  -5.0296  -3.6707  -3.0706  -1.5550  -1.3002
    -0.7706  -0.0071   0.1111   1.2498   1.4953   2.0267   2.6658   2.9031

          k = 0.0000 0.3125 0.0000 ( 26528 PWs)   bands (ev):

    -9.1829  -7.7885  -5.8197  -5.6194  -4.4530  -2.7604  -2.3257  -1.0049
    -0.4733   0.2828   0.2880   0.6446   1.7741   2.1478   2.3205   2.7226

          k = 0.0000 0.3750 0.0000 ( 26568 PWs)   bands (ev):

    -8.7931  -7.4017  -6.5472  -5.2371  -5.1741  -3.0369  -2.3828  -0.6438
    -0.2425  -0.1109   0.6486   0.8499   1.4580   1.8580   2.3353   2.6794

          k = 0.0000 0.4375 0.0000 ( 26588 PWs)   bands (ev):

    -8.3337  -7.2098  -6.9459  -5.8310  -4.7867  -3.6854  -1.9391  -0.8622
    -0.2170   0.3153   0.8339   1.0748   1.2679   1.3433   2.1238   2.2762

          k = 0.0000-0.5000 0.0000 ( 26558 PWs)   bands (ev):

    -7.8057  -7.8057  -6.4221  -6.4221  -4.2691  -4.2691  -1.4312  -1.4312
     0.2756   0.2756   0.8029   0.8029   1.5665   1.5665   1.7513   1.7513

          k = 0.0625 0.0625 0.0000 ( 26537 PWs)   bands (ev):

   -10.0014  -8.6006  -6.4225  -3.5554  -2.3558  -2.3558  -1.2344  -1.0358
    -1.0358   0.2220   0.2220   1.0205   1.0205   1.6193   1.6193   2.2378

          k = 0.0625 0.1250 0.0000 ( 26552 PWs)   bands (ev):

    -9.8944  -8.4944  -6.3175  -3.4513  -3.2530  -2.2618  -1.9062  -1.1350
    -0.9340   0.1681   0.3305   1.1192   1.2666   1.7511   2.3312   2.6532

          k = 0.0625 0.1875 0.0000 ( 26573 PWs)   bands (ev):

    -9.7162  -8.3176  -6.1426  -4.1475  -3.2781  -2.8009  -2.0821  -0.9693
    -0.7791  -0.6838   0.4958   1.2690   1.8334   2.1035   2.4705   2.5408

          k = 0.0625 0.2500 0.0000 ( 26585 PWs)   bands (ev):

    -9.4671  -8.0704  -5.8982  -4.9952  -3.6370  -3.0362  -1.8513  -1.5219
    -0.7378  -0.5331   0.7016   1.2403   1.6089   2.0745   2.3174   2.8028

          k = 0.0625 0.3125 0.0000 ( 26555 PWs)   bands (ev):

    -9.1474  -7.7533  -5.7851  -5.5846  -4.4188  -2.7261  -2.2920  -1.5527
    -0.4408  -0.2357   0.4635   1.0960   1.6145   1.8441   2.3113   2.7875

          k = 0.0625 0.3750 0.0000 ( 26555 PWs)   bands (ev):

    -8.7577  -7.3666  -6.5124  -5.2024  -5.1396  -3.0029  -2.3489  -1.1897
    -0.1919  -0.0792   0.1270   0.9325   1.4346   1.9835   2.1960   2.2452

          k = 0.0625 0.4375 0.0000 ( 26574 PWs)   bands (ev):

    -8.2985  -7.1748  -6.9110  -5.7963  -4.7522  -3.6512  -1.9059  -0.8721
    -0.7045   0.3090   0.3445   0.5507   1.4014   1.6250   1.8547   2.6167

          k = 0.0625-0.5000 0.0000 ( 26598 PWs)   bands (ev):

    -7.7705  -7.7705  -6.3872  -6.3872  -4.2347  -4.2347  -1.3998  -1.3998
    -0.2501  -0.2501   0.8035   0.8035   1.0958   1.0958   2.3312   2.3312

          k = 0.1250 0.1250 0.0000 ( 26551 PWs)   bands (ev):

    -9.7874  -8.3883  -6.2125  -3.3474  -3.1528  -3.1528  -1.8088  -1.8088
    -1.0357   0.2662   0.2662   1.3998   1.3998   2.4029   2.7631   2.7631

          k = 0.1250 0.1875 0.0000 ( 26552 PWs)   bands (ev):

    -9.6094  -8.2116  -6.0378  -4.0455  -3.1745  -2.9954  -2.6785  -1.6417
    -0.8704  -0.5959   0.4246   1.5531   2.2264   2.2324   2.5477   2.7359

          k = 0.1250 0.2500 0.0000 ( 26563 PWs)   bands (ev):

    -9.3605  -7.9647  -5.7936  -4.8922  -3.5379  -2.9330  -2.7377  -1.4468
    -1.3796  -0.6395   0.6249   1.3878   1.5018   1.8679   2.8336   2.8831

          k = 0.1250 0.3125 0.0000 ( 26555 PWs)   bands (ev):

    -9.0410  -7.6477  -5.6813  -5.4803  -4.3166  -2.6236  -2.4378  -2.1911
    -1.1040  -0.3439   0.5257   0.7611   1.0711   2.0879   2.1326   2.6943

          k = 0.1250 0.3750 0.0000 ( 26573 PWs)   bands (ev):

    -8.6516  -7.2613  -6.4080  -5.0984  -5.0363  -2.9010  -2.2475  -2.0694
    -0.7376  -0.0993   0.0139   0.0727   1.3725   1.4038   2.0902   2.4854

          k = 0.1250 0.4375 0.0000 ( 26557 PWs)   bands (ev):

    -8.1927  -7.0699  -6.8061  -5.6924  -4.6486  -3.5486  -1.8073  -1.6376
    -0.7165  -0.5540  -0.3067   0.4084   0.8087   1.4971   1.7879   2.8130

          k = 0.1250-0.5000 0.0000 ( 26554 PWs)   bands (ev):

    -7.6651  -7.6651  -6.2828  -6.2828  -4.1316  -4.1316  -1.3319  -1.3319
    -1.0885  -1.0885   0.1810   0.1810   0.9613   0.9613   2.2724   2.2724

          k = 0.1875 0.1875 0.0000 ( 26561 PWs)   bands (ev):

    -9.4315  -8.0352  -5.8634  -3.8763  -3.8763  -3.0020  -2.5201  -2.5201
    -0.7059  -0.4329  -0.4329   1.4527   2.3041   2.3041   2.7886   2.8127

          k = 0.1875 0.2500 0.0000 ( 26541 PWs)   bands (ev):

    -9.1829  -7.7885  -5.6195  -4.7208  -3.6515  -3.3434  -2.7613  -2.2849
    -1.2532  -0.4766  -0.2088   0.6539   1.5560   1.9855   2.5100   3.0218

          k = 0.1875 0.3125 0.0000 ( 26566 PWs)   bands (ev):

    -8.8639  -7.4720  -5.5085  -5.3067  -4.1484  -3.3213  -2.4533  -2.0342
    -1.9686  -0.1851  -0.0982   0.0532   0.8563   1.2390   2.5780   3.1305

          k = 0.1875 0.3750 0.0000 ( 26569 PWs)   bands (ev):

    -8.4749  -7.0861  -6.2342  -4.9253  -4.8646  -2.9517  -2.7315  -2.0803
    -1.6102  -0.7914  -0.0018   0.1432   0.5791   0.5882   2.1934   2.5869

          k = 0.1875 0.4375 0.0000 ( 26566 PWs)   bands (ev):

    -8.0166  -6.8952  -6.6314  -5.5194  -4.4761  -3.3778  -2.5135  -1.6670
    -1.3983  -1.1748  -0.5660  -0.1221   0.6375   0.9515   1.6397   1.9826

          k = 0.1875-0.5000 0.0000 ( 26550 PWs)   bands (ev):

    -7.4897  -7.4897  -6.1088  -6.1088  -3.9599  -3.9599  -2.0125  -2.0125
    -1.1201  -1.1201  -0.6756  -0.6756   1.1076   1.1076   1.4326   1.4326

          k = 0.2500 0.2500 0.0000 ( 26595 PWs)   bands (ev):

    -8.9347  -7.5423  -5.3762  -4.4820  -4.4820  -3.1185  -3.1185  -2.5221
    -1.0226  -1.0226  -0.2515  -0.1577   1.1813   1.7672   1.7672   3.0700

          k = 0.2500 0.3125 0.0000 ( 26582 PWs)   bands (ev):

    -8.6162  -7.2263  -5.2672  -5.0639  -4.1878  -3.8838  -2.8142  -2.2172
    -1.7871  -0.9151  -0.7312   0.0103   0.4586   1.0481   2.0067   2.4680

          k = 0.2500 0.3750 0.0000 ( 26571 PWs)   bands (ev):

    -8.2279  -6.8411  -5.9913  -4.6833  -4.6268  -3.7873  -2.4991  -2.4364
    -1.8691  -1.5909  -0.4045  -0.3109   0.4050   0.4414   1.8002   2.1252

          k = 0.2500 0.4375 0.0000 ( 26591 PWs)   bands (ev):

    -7.7704  -6.6510  -6.3873  -5.2779  -4.2350  -3.3479  -3.1393  -2.2704
    -2.0021  -1.3917  -0.9307  -0.4042   0.2091   0.8451   1.1848   1.8011

          k = 0.2500-0.5000 0.0000 ( 26572 PWs)   bands (ev):

    -7.2444  -7.2444  -5.8658  -5.8658  -3.7200  -3.7200  -2.8404  -2.8404
    -1.4979  -1.4979  -0.9034  -0.9034   0.6377   0.6377   1.3120   1.3120

          k = 0.3125 0.3125 0.0000 ( 26611 PWs)   bands (ev):

    -8.2984  -6.9111  -4.9584  -4.9584  -4.7525  -3.5902  -3.5902  -1.9366
    -1.6560  -1.4880  -1.4880  -0.3746   0.3758   1.3180   1.3180   1.7385

          k = 0.3125 0.3750 0.0000 ( 26595 PWs)   bands (ev):

    -7.9110  -6.5268  -5.6798  -4.5943  -4.3729  -4.2928  -3.2165  -2.4010
    -2.1909  -1.5281  -1.1287  -1.0601   0.6570   0.7133   1.0589   1.6199

          k = 0.3125 0.4375 0.0000 ( 26596 PWs)   bands (ev):

    -7.4545  -6.3377  -6.0742  -4.9702  -4.1242  -3.9258  -3.0389  -2.8348
    -2.7733  -1.6945  -1.1069  -0.7357   0.0770   0.4461   1.1144   1.7985

          k = 0.3125-0.5000 0.0000 ( 26580 PWs)   bands (ev):

    -6.9297  -6.9297  -5.5543  -5.5543  -3.6153  -3.6153  -3.4123  -3.4123
    -2.2670  -2.2670  -0.6744  -0.6744  -0.0485  -0.0485   1.5378   1.5378

          k = 0.3750 0.3750 0.0000 ( 26618 PWs)   bands (ev):

    -7.5246  -6.1438  -5.3009  -5.3009  -3.9946  -3.9297  -3.9297  -3.1054
    -1.8232  -1.8232  -1.7604  -1.1749   0.3818   0.9919   0.9919   1.0484

          k = 0.3750 0.4375 0.0000 ( 26586 PWs)   bands (ev):

    -7.0693  -5.9559  -5.6929  -4.8667  -4.5669  -3.7498  -3.5491  -3.4867
    -2.4614  -2.4002  -1.3957  -0.8099  -0.1783   0.3934   1.3592   1.4058

          k = 0.3750-0.5000 0.0000 ( 26618 PWs)   bands (ev):

    -6.5461  -6.5461  -5.1768  -5.1768  -4.3276  -4.3276  -3.0379  -3.0379
    -2.9759  -2.9759  -0.9357  -0.9357  -0.1213  -0.1213   1.6016   1.6016

          k = 0.4375 0.4375 0.0000 ( 26638 PWs)   bands (ev):

    -6.6157  -5.5071  -5.5071  -5.2458  -4.3956  -4.1343  -4.1343  -3.1059
    -3.0435  -2.0252  -2.0252  -1.0026  -0.1877   0.7948   0.7948   1.5358

          k = 0.4375-0.5000 0.0000 ( 26666 PWs)   bands (ev):

    -6.0943  -6.0943  -5.0033  -5.0033  -4.7044  -4.7044  -3.6224  -3.6224
    -2.5970  -2.5970  -1.5297  -1.5297   0.2610   0.2610   1.2282   1.2282

          k =-0.5000-0.5000 0.0000 ( 26616 PWs)   bands (ev):

    -5.5759  -5.5759  -5.5759  -5.5759  -4.2027  -4.2027  -4.2027  -4.2027
    -2.0926  -2.0926  -2.0926  -2.0926   0.7288   0.7288   0.7288   0.7288

     the Fermi energy is     0.6687 ev

!    total energy              =     -99.58821431 Ry
     Harris-Foulkes estimate   =     -99.58821458 Ry
     estimated scf accuracy    <       0.00000034 Ry

     The total energy is the sum of the following terms:

     one-electron contribution =    -261.47321384 Ry
     hartree contribution      =     136.28023711 Ry
     xc contribution           =     -79.84774117 Ry
     ewald contribution        =     105.45229620 Ry
     smearing contrib. (-TS)   =       0.00020740 Ry

     convergence has been achieved in   4 iterations

     Forces acting on atoms (Ry/au):


     negative rho (up, down):  7.551E-07 0.000E+00
     atom    1 type  1   force =     0.00000000    0.00000000   -0.00467303
     atom    2 type  1   force =     0.00000000    0.00000000   -0.00467302
     atom    3 type  1   force =     0.00000000    0.00000000    0.00079543
     atom    4 type  1   force =     0.00000000    0.00000000    0.00079543
     atom    5 type  1   force =     0.00000000    0.00000000   -0.00079528
     atom    6 type  1   force =     0.00000000    0.00000000   -0.00079526
     atom    7 type  1   force =     0.00000000    0.00000000    0.00467287
     atom    8 type  1   force =     0.00000000    0.00000000    0.00467287

     Total force =     0.009480     Total SCF correction =     0.000613


     entering subroutine stress ...


     negative rho (up, down):  7.551E-07 0.000E+00
          total   stress  (Ry/bohr**3)                   (kbar)     P=   -8.85
  -0.00011301   0.00000000   0.00000000        -16.62      0.00      0.00
   0.00000000  -0.00011301   0.00000000          0.00    -16.62      0.00
   0.00000000   0.00000000   0.00004549          0.00      0.00      6.69


     number of scf cycles    =   2
     number of bfgs steps    =   1

     energy   old            =     -99.5881113136 Ry
     energy   new            =     -99.5882143052 Ry

     CASE: energy  _new < energy  _old


     WARNING: bfgs curvature condition failed, Theta= 0.879
     new trust radius        =       0.0075500804 bohr
     new conv_thr            =       0.0000000103 Ry


ATOMIC_POSITIONS (crystal)
Al       0.000000000   0.000000000  -0.000330923
Al       0.500000000   0.500000000  -0.000330924
Al       0.500000000   0.000000000   0.100071476
Al       0.000000000   0.500000000   0.100071476
Al       0.000000000   0.000000000   0.199928527
Al       0.500000000   0.500000000   0.199928524
Al       0.500000000   0.000000000   0.300330922
Al       0.000000000   0.500000000   0.300330922



     Writing output data file Al_100_2_3.save
     NEW-OLD atomic charge density approx. for the potential

     negative rho (up, down):  6.757E-07 0.000E+00

     total cpu time spent up to now is      804.6 secs

     per-process dynamical memory:   377.2 Mb

     Self-consistent Calculation

     iteration #  1     ecut=    80.00 Ry     beta=0.30
     Davidson diagonalization with overlap
     ethr =  1.00E-06,  avg # of iterations =  2.2

     Threshold (ethr) on eigenvalues was too large:
     Diagonalizing with lowered threshold

     Davidson diagonalization with overlap
     ethr =  4.50E-08,  avg # of iterations =  2.7

     negative rho (up, down):  4.573E-07 0.000E+00

     total cpu time spent up to now is      895.5 secs

     total energy              =     -99.58835155 Ry
     Harris-Foulkes estimate   =     -99.58835261 Ry
     estimated scf accuracy    <       0.00000959 Ry

     iteration #  2     ecut=    80.00 Ry     beta=0.30
     Davidson diagonalization with overlap
     ethr =  3.99E-08,  avg # of iterations =  1.0

     negative rho (up, down):  1.748E-07 0.000E+00

     total cpu time spent up to now is      932.3 secs

     total energy              =     -99.58834936 Ry
     Harris-Foulkes estimate   =     -99.58835168 Ry
     estimated scf accuracy    <       0.00000563 Ry

     iteration #  3     ecut=    80.00 Ry     beta=0.30
     Davidson diagonalization with overlap
     ethr =  2.34E-08,  avg # of iterations =  2.4

     negative rho (up, down):  2.235E-07 0.000E+00

     total cpu time spent up to now is      973.6 secs

     total energy              =     -99.58835048 Ry
     Harris-Foulkes estimate   =     -99.58835054 Ry
     estimated scf accuracy    <       0.00000022 Ry

     iteration #  4     ecut=    80.00 Ry     beta=0.30
     Davidson diagonalization with overlap
     ethr =  9.11E-10,  avg # of iterations =  2.6

     negative rho (up, down):  4.446E-07 0.000E+00

     total cpu time spent up to now is     1022.1 secs

     total energy              =     -99.58835052 Ry
     Harris-Foulkes estimate   =     -99.58835052 Ry
     estimated scf accuracy    <       0.00000006 Ry

     iteration #  5     ecut=    80.00 Ry     beta=0.30
     Davidson diagonalization with overlap
     ethr =  2.32E-10,  avg # of iterations =  2.8

     negative rho (up, down):  3.624E-07 0.000E+00

     total cpu time spent up to now is     1071.2 secs

     total energy              =     -99.58835050 Ry
     Harris-Foulkes estimate   =     -99.58835055 Ry
     estimated scf accuracy    <       0.00000023 Ry

     iteration #  6     ecut=    80.00 Ry     beta=0.30
     Davidson diagonalization with overlap
     ethr =  2.32E-10,  avg # of iterations =  2.4

     negative rho (up, down):  5.906E-07 0.000E+00

     total cpu time spent up to now is     1120.1 secs

     total energy              =     -99.58835052 Ry
     Harris-Foulkes estimate   =     -99.58835052 Ry
     estimated scf accuracy    <       0.00000003 Ry

     iteration #  7     ecut=    80.00 Ry     beta=0.30
     Davidson diagonalization with overlap
     ethr =  1.10E-10,  avg # of iterations =  2.4

     negative rho (up, down):  6.248E-07 0.000E+00

     total cpu time spent up to now is     1162.4 secs

     total energy              =     -99.58835051 Ry
     Harris-Foulkes estimate   =     -99.58835052 Ry
     estimated scf accuracy    <       0.00000004 Ry

     iteration #  8     ecut=    80.00 Ry     beta=0.30
     Davidson diagonalization with overlap
     ethr =  1.10E-10,  avg # of iterations =  1.8

     negative rho (up, down):  7.446E-07 0.000E+00

     total cpu time spent up to now is     1198.0 secs

     End of self-consistent calculation

          k = 0.0000 0.0000 0.0000 ( 26609 PWs)   bands (ev):

   -10.0635  -8.6577  -6.4914  -3.6265  -1.8156  -1.8156  -1.3030  -0.5162
    -0.5162  -0.4398  -0.4398   1.0066   1.0066   1.5053   1.5053   2.1675

          k = 0.0000 0.0625 0.0000 ( 26567 PWs)   bands (ev):

   -10.0278  -8.6223  -6.4563  -3.5918  -2.3792  -1.7828  -1.2698  -1.0633
    -0.4834  -0.3794   0.1717   0.9564   1.0957   1.5380   1.5846   2.1999

          k = 0.0000 0.1250 0.0000 ( 26551 PWs)   bands (ev):

    -9.9208  -8.5160  -6.3513  -3.4876  -3.2772  -1.9370  -1.6844  -1.1702
    -0.3850  -0.2751   0.1328   1.0234   1.3959   1.6359   2.2965   2.5903

          k = 0.0000 0.1875 0.0000 ( 26600 PWs)   bands (ev):

    -9.7426  -8.3392  -6.1764  -4.1722  -3.3143  -2.8181  -1.5203  -1.0045
    -0.7293  -0.2211  -0.1065   1.2697   1.7992   2.0044   2.4538   2.5098

          k = 0.0000 0.2500 0.0000 ( 26524 PWs)   bands (ev):

    -9.4934  -8.0919  -5.9319  -5.0203  -3.6565  -3.0722  -1.5536  -1.2906
    -0.7727   0.0083   0.1205   1.2483   1.5078   2.0277   2.6608   2.9128

          k = 0.0000 0.3125 0.0000 ( 26528 PWs)   bands (ev):

    -9.1736  -7.7746  -5.8104  -5.6182  -4.4390  -2.7619  -2.3243  -0.9952
    -0.4753   0.2886   0.3034   0.6466   1.7859   2.1574   2.3214   2.7224

          k = 0.0000 0.3750 0.0000 ( 26568 PWs)   bands (ev):

    -8.7838  -7.3878  -6.5380  -5.2359  -5.1601  -3.0356  -2.3843  -0.6342
    -0.2432  -0.1129   0.6641   0.8583   1.4677   1.8601   2.3446   2.6803

          k = 0.0000 0.4375 0.0000 ( 26588 PWs)   bands (ev):

    -8.3245  -7.2005  -6.9321  -5.8171  -4.7855  -3.6841  -1.9406  -0.8634
    -0.2073   0.3134   0.8436   1.0903   1.2768   1.3418   2.1394   2.2852

          k = 0.0000-0.5000 0.0000 ( 26558 PWs)   bands (ev):

    -7.7964  -7.7964  -6.4082  -6.4082  -4.2678  -4.2678  -1.4325  -1.4325
     0.2852   0.2852   0.8011   0.8011   1.5821   1.5821   1.7603   1.7603

          k = 0.0625 0.0625 0.0000 ( 26537 PWs)   bands (ev):

    -9.9921  -8.5868  -6.4213  -3.5570  -2.3463  -2.3463  -1.2366  -1.0210
    -1.0210   0.2315   0.2315   1.0220   1.0220   1.6324   1.6324   2.2318

          k = 0.0625 0.1250 0.0000 ( 26552 PWs)   bands (ev):

    -9.8851  -8.4806  -6.3163  -3.4529  -3.2436  -2.2522  -1.8919  -1.1371
    -0.9192   0.1696   0.3399   1.1204   1.2763   1.7640   2.3253   2.6666

          k = 0.0625 0.1875 0.0000 ( 26573 PWs)   bands (ev):

    -9.7069  -8.3038  -6.1415  -4.1381  -3.2797  -2.7867  -2.0726  -0.9715
    -0.7656  -0.6811   0.5053   1.2700   1.8465   2.1022   2.4656   2.5503

          k = 0.0625 0.2500 0.0000 ( 26585 PWs)   bands (ev):

    -9.4578  -8.0566  -5.8970  -4.9859  -3.6229  -3.0377  -1.8418  -1.5204
    -0.7399  -0.5183   0.7108   1.2394   1.6097   2.0875   2.3253   2.7988

          k = 0.0625 0.3125 0.0000 ( 26555 PWs)   bands (ev):

    -9.1382  -7.7394  -5.7758  -5.5834  -4.4048  -2.7277  -2.2906  -1.5432
    -0.4429  -0.2208   0.4635   1.1038   1.6240   1.8453   2.3215   2.7893

          k = 0.0625 0.3750 0.0000 ( 26555 PWs)   bands (ev):

    -8.7484  -7.3527  -6.5031  -5.2012  -5.1256  -3.0016  -2.3504  -1.1802
    -0.1930  -0.0812   0.1418   0.9420   1.4435   1.9828   2.1972   2.2604

          k = 0.0625 0.4375 0.0000 ( 26574 PWs)   bands (ev):

    -8.2892  -7.1655  -6.8971  -5.7824  -4.7509  -3.6499  -1.9073  -0.8699
    -0.6985   0.3185   0.3426   0.5653   1.4001   1.6401   1.8638   2.6179

          k = 0.0625-0.5000 0.0000 ( 26598 PWs)   bands (ev):

    -7.7613  -7.7613  -6.3733  -6.3733  -4.2334  -4.2334  -1.4011  -1.4011
    -0.2407  -0.2407   0.8036   0.8036   1.1089   1.1089   2.3403   2.3403

          k = 0.1250 0.1250 0.0000 ( 26551 PWs)   bands (ev):

    -9.7782  -8.3745  -6.2114  -3.3490  -3.1433  -3.1433  -1.7943  -1.7943
    -1.0378   0.2676   0.2676   1.4092   1.4092   2.3981   2.7767   2.7767

          k = 0.1250 0.1875 0.0000 ( 26552 PWs)   bands (ev):

    -9.6001  -8.1978  -6.0367  -4.0361  -3.1760  -2.9858  -2.6644  -1.6272
    -0.8725  -0.5945   0.4260   1.5623   2.2254   2.2392   2.5573   2.7324

          k = 0.1250 0.2500 0.0000 ( 26563 PWs)   bands (ev):

    -9.3512  -7.9508  -5.7925  -4.8829  -3.5238  -2.9345  -2.7282  -1.4396
    -1.3709  -0.6416   0.6261   1.3882   1.5111   1.8757   2.8486   2.8768

          k = 0.1250 0.3125 0.0000 ( 26555 PWs)   bands (ev):

    -9.0318  -7.6339  -5.6720  -5.4791  -4.3025  -2.6251  -2.4283  -2.1897
    -1.0896  -0.3459   0.5250   0.7706   1.0721   2.1028   2.1417   2.6944

          k = 0.1250 0.3750 0.0000 ( 26573 PWs)   bands (ev):

    -8.6423  -7.2475  -6.3987  -5.0972  -5.0223  -2.8996  -2.2490  -2.0599
    -0.7231  -0.1006   0.0120   0.0821   1.3738   1.4185   2.0893   2.4946

          k = 0.1250 0.4375 0.0000 ( 26557 PWs)   bands (ev):

    -8.1834  -7.0606  -6.7922  -5.6784  -4.6473  -3.5473  -1.8086  -1.6281
    -0.7179  -0.5447  -0.2922   0.4080   0.8220   1.4958   1.7893   2.8144

          k = 0.1250-0.5000 0.0000 ( 26554 PWs)   bands (ev):

    -7.6559  -7.6559  -6.2689  -6.2689  -4.1303  -4.1303  -1.3311  -1.3311
    -1.0813  -1.0813   0.1950   0.1950   0.9602   0.9602   2.2738   2.2738

          k = 0.1875 0.1875 0.0000 ( 26561 PWs)   bands (ev):

    -9.4223  -8.0214  -5.8622  -3.8669  -3.8669  -3.0036  -2.5058  -2.5058
    -0.7080  -0.4315  -0.4315   1.4621   2.3043   2.3043   2.8035   2.8211

          k = 0.1875 0.2500 0.0000 ( 26541 PWs)   bands (ev):

    -9.1737  -7.7747  -5.6183  -4.7114  -3.6418  -3.3295  -2.7628  -2.2706
    -1.2519  -0.4786  -0.2074   0.6634   1.5552   2.0003   2.5098   3.0310

          k = 0.1875 0.3125 0.0000 ( 26566 PWs)   bands (ev):

    -8.8546  -7.4581  -5.4992  -5.3054  -4.1343  -3.3118  -2.4548  -2.0298
    -1.9573  -0.1870  -0.0888   0.0543   0.8554   1.2537   2.5787   3.1296

          k = 0.1875 0.3750 0.0000 ( 26569 PWs)   bands (ev):

    -8.4656  -7.0722  -6.2249  -4.9241  -4.8506  -2.9422  -2.7301  -2.0816
    -1.5960  -0.7821  -0.0027   0.1427   0.5892   0.5923   2.1930   2.5884

          k = 0.1875 0.4375 0.0000 ( 26566 PWs)   bands (ev):

    -8.0073  -6.8859  -6.6176  -5.5054  -4.4748  -3.3765  -2.5041  -1.6665
    -1.3908  -1.1605  -0.5674  -0.1082   0.6364   0.9530   1.6386   1.9840

          k = 0.1875-0.5000 0.0000 ( 26550 PWs)   bands (ev):

    -7.4804  -7.4804  -6.0949  -6.0949  -3.9586  -3.9586  -2.0030  -2.0030
    -1.1216  -1.1216  -0.6613  -0.6613   1.1062   1.1062   1.4340   1.4340

          k = 0.2500 0.2500 0.0000 ( 26595 PWs)   bands (ev):

    -8.9255  -7.5284  -5.3749  -4.4726  -4.4726  -3.1043  -3.1043  -2.5235
    -1.0213  -1.0213  -0.2534  -0.1483   1.1959   1.7665   1.7665   3.0691

          k = 0.2500 0.3125 0.0000 ( 26582 PWs)   bands (ev):

    -8.6070  -7.2125  -5.2579  -5.0627  -4.1782  -3.8700  -2.8000  -2.2185
    -1.7858  -0.9059  -0.7299   0.0098   0.4718   1.0471   2.0065   2.4696

          k = 0.2500 0.3750 0.0000 ( 26571 PWs)   bands (ev):

    -8.2186  -6.8272  -5.9820  -4.6821  -4.6128  -3.7779  -2.4963  -2.4237
    -1.8688  -1.5833  -0.4034  -0.2972   0.4041   0.4404   1.8018   2.1258

          k = 0.2500 0.4375 0.0000 ( 26591 PWs)   bands (ev):

    -7.7611  -6.6417  -6.3734  -5.2639  -4.2338  -3.3385  -3.1379  -2.2610
    -1.9880  -1.3932  -0.9165  -0.4052   0.2102   0.8436   1.1863   1.8006

          k = 0.2500-0.5000 0.0000 ( 26572 PWs)   bands (ev):

    -7.2351  -7.2351  -5.8519  -5.8519  -3.7187  -3.7187  -2.8310  -2.8310
    -1.4837  -1.4837  -0.9048  -0.9048   0.6392   0.6392   1.3108   1.3108

          k = 0.3125 0.3125 0.0000 ( 26611 PWs)   bands (ev):

    -8.2892  -6.8972  -4.9490  -4.9490  -4.7512  -3.5761  -3.5761  -1.9364
    -1.6483  -1.4867  -1.4867  -0.3610   0.3748   1.3172   1.3172   1.7400

          k = 0.3125 0.3750 0.0000 ( 26595 PWs)   bands (ev):

    -7.9017  -6.5129  -5.6704  -4.5846  -4.3716  -4.2790  -3.2024  -2.3915
    -2.1896  -1.5297  -1.1274  -1.0459   0.6560   0.7119   1.0604   1.6196

          k = 0.3125 0.4375 0.0000 ( 26596 PWs)   bands (ev):

    -7.4452  -6.3284  -6.0603  -4.9562  -4.1148  -3.9246  -3.0295  -2.8329
    -2.7598  -1.6803  -1.1083  -0.7347   0.0761   0.4476   1.1132   1.7991

          k = 0.3125-0.5000 0.0000 ( 26580 PWs)   bands (ev):

    -6.9204  -6.9204  -5.5404  -5.5404  -3.6059  -3.6059  -3.4110  -3.4110
    -2.2528  -2.2528  -0.6754  -0.6754  -0.0473  -0.0473   1.5373   1.5373

          k = 0.3750 0.3750 0.0000 ( 26618 PWs)   bands (ev):

    -7.5153  -6.1299  -5.2915  -5.2915  -3.9933  -3.9157  -3.9157  -3.0960
    -1.8219  -1.8219  -1.7462  -1.1763   0.3832   0.9911   0.9911   1.0472

          k = 0.3750 0.4375 0.0000 ( 26586 PWs)   bands (ev):

    -7.0601  -5.9466  -5.6789  -4.8571  -4.5532  -3.7404  -3.5478  -3.4726
    -2.4601  -2.3860  -1.3944  -0.8110  -0.1772   0.3924   1.3590   1.4053

          k = 0.3750-0.5000 0.0000 ( 26618 PWs)   bands (ev):

    -6.5368  -6.5368  -5.1629  -5.1629  -4.3182  -4.3182  -3.0364  -3.0364
    -2.9620  -2.9620  -0.9347  -0.9347  -0.1222  -0.1222   1.6021   1.6021

          k = 0.4375 0.4375 0.0000 ( 26638 PWs)   bands (ev):

    -6.6064  -5.4977  -5.4977  -5.2319  -4.3862  -4.1203  -4.1203  -3.1045
    -3.0295  -2.0239  -2.0239  -1.0016  -0.1886   0.7940   0.7940   1.5364

          k = 0.4375-0.5000 0.0000 ( 26666 PWs)   bands (ev):

    -6.0850  -6.0850  -4.9937  -4.9937  -4.6907  -4.6907  -3.6083  -3.6083
    -2.5957  -2.5957  -1.5284  -1.5284   0.2600   0.2600   1.2279   1.2279

          k =-0.5000-0.5000 0.0000 ( 26616 PWs)   bands (ev):

    -5.5666  -5.5666  -5.5666  -5.5666  -4.1887  -4.1887  -4.1887  -4.1887
    -2.0913  -2.0913  -2.0913  -2.0913   0.7280   0.7280   0.7280   0.7280

     the Fermi energy is     0.6726 ev

!    total energy              =     -99.58835051 Ry
     Harris-Foulkes estimate   =     -99.58835052 Ry
     estimated scf accuracy    <          1.5E-09 Ry

     The total energy is the sum of the following terms:

     one-electron contribution =    -261.09970975 Ry
     hartree contribution      =     136.09695509 Ry
     xc contribution           =     -79.84377938 Ry
     ewald contribution        =     105.25797196 Ry
     smearing contrib. (-TS)   =       0.00021157 Ry

     convergence has been achieved in   8 iterations

     Forces acting on atoms (Ry/au):


     negative rho (up, down):  7.446E-07 0.000E+00
     atom    1 type  1   force =     0.00000000    0.00000000   -0.00415541
     atom    2 type  1   force =     0.00000000    0.00000000   -0.00415541
     atom    3 type  1   force =     0.00000000    0.00000000    0.00020595
     atom    4 type  1   force =     0.00000000    0.00000000    0.00020595
     atom    5 type  1   force =     0.00000000    0.00000000   -0.00020598
     atom    6 type  1   force =     0.00000000    0.00000000   -0.00020596
     atom    7 type  1   force =     0.00000000    0.00000000    0.00415543
     atom    8 type  1   force =     0.00000000    0.00000000    0.00415543

     Total force =     0.008321     Total SCF correction =     0.000045


     entering subroutine stress ...


     negative rho (up, down):  7.446E-07 0.000E+00
          total   stress  (Ry/bohr**3)                   (kbar)     P=   -9.13
  -0.00011430   0.00000000   0.00000000        -16.81      0.00      0.00
   0.00000000  -0.00011430   0.00000000          0.00    -16.81      0.00
   0.00000000   0.00000000   0.00004233          0.00      0.00      6.23


     number of scf cycles    =   3
     number of bfgs steps    =   2

     energy   old            =     -99.5882143052 Ry
     energy   new            =     -99.5883505055 Ry

     CASE: energy  _new < energy  _old

     new trust radius        =       0.0113251206 bohr
     new conv_thr            =       0.0000000136 Ry


ATOMIC_POSITIONS (crystal)
Al       0.000000000   0.000000000  -0.000628755
Al       0.500000000   0.500000000  -0.000628757
Al       0.500000000   0.000000000   0.100107804
Al       0.000000000   0.500000000   0.100107804
Al       0.000000000   0.000000000   0.199892200
Al       0.500000000   0.500000000   0.199892195
Al       0.500000000   0.000000000   0.300628756
Al       0.000000000   0.500000000   0.300628756



     Writing output data file Al_100_2_3.save
     NEW-OLD atomic charge density approx. for the potential

     negative rho (up, down):  6.754E-07 0.000E+00

     total cpu time spent up to now is     1217.7 secs

     per-process dynamical memory:   377.2 Mb

     Self-consistent Calculation

     iteration #  1     ecut=    80.00 Ry     beta=0.30
     Davidson diagonalization with overlap
     ethr =  1.00E-06,  avg # of iterations =  3.0

     Threshold (ethr) on eigenvalues was too large:
     Diagonalizing with lowered threshold

     Davidson diagonalization with overlap
     ethr =  9.15E-08,  avg # of iterations =  1.1

     negative rho (up, down):  5.817E-07 0.000E+00

     total cpu time spent up to now is     1310.2 secs

     total energy              =     -99.58852382 Ry
     Harris-Foulkes estimate   =     -99.58852604 Ry
     estimated scf accuracy    <       0.00002249 Ry

     iteration #  2     ecut=    80.00 Ry     beta=0.30
     Davidson diagonalization with overlap
     ethr =  9.37E-08,  avg # of iterations =  1.0

     negative rho (up, down):  6.146E-07 0.000E+00

     total cpu time spent up to now is     1345.9 secs

     total energy              =     -99.58851842 Ry
     Harris-Foulkes estimate   =     -99.58852408 Ry
     estimated scf accuracy    <       0.00001433 Ry

     iteration #  3     ecut=    80.00 Ry     beta=0.30
     Davidson diagonalization with overlap
     ethr =  5.97E-08,  avg # of iterations =  2.0

     negative rho (up, down):  6.091E-07 0.000E+00

     total cpu time spent up to now is     1391.6 secs

     total energy              =     -99.58852155 Ry
     Harris-Foulkes estimate   =     -99.58852191 Ry
     estimated scf accuracy    <       0.00000231 Ry

     iteration #  4     ecut=    80.00 Ry     beta=0.30
     Davidson diagonalization with overlap
     ethr =  9.64E-09,  avg # of iterations =  1.1

     negative rho (up, down):  5.461E-07 0.000E+00

     total cpu time spent up to now is     1428.4 secs

     total energy              =     -99.58852157 Ry
     Harris-Foulkes estimate   =     -99.58852165 Ry
     estimated scf accuracy    <       0.00000079 Ry

     iteration #  5     ecut=    80.00 Ry     beta=0.30
     Davidson diagonalization with overlap
     ethr =  3.29E-09,  avg # of iterations =  1.9

     negative rho (up, down):  5.589E-07 0.000E+00

     total cpu time spent up to now is     1467.3 secs

     total energy              =     -99.58852157 Ry
     Harris-Foulkes estimate   =     -99.58852162 Ry
     estimated scf accuracy    <       0.00000012 Ry

     iteration #  6     ecut=    80.00 Ry     beta=0.30
     Davidson diagonalization with overlap
     ethr =  5.05E-10,  avg # of iterations =  2.9

     negative rho (up, down):  5.535E-07 0.000E+00

     total cpu time spent up to now is     1517.2 secs

     total energy              =     -99.58852161 Ry
     Harris-Foulkes estimate   =     -99.58852161 Ry
     estimated scf accuracy    <       0.00000008 Ry

     iteration #  7     ecut=    80.00 Ry     beta=0.30
     Davidson diagonalization with overlap
     ethr =  3.45E-10,  avg # of iterations =  1.0

     negative rho (up, down):  6.841E-07 0.000E+00

     total cpu time spent up to now is     1555.0 secs

     total energy              =     -99.58852160 Ry
     Harris-Foulkes estimate   =     -99.58852161 Ry
     estimated scf accuracy    <       0.00000009 Ry

     iteration #  8     ecut=    80.00 Ry     beta=0.30
     Davidson diagonalization with overlap
     ethr =  3.45E-10,  avg # of iterations =  1.0

     negative rho (up, down):  7.240E-07 0.000E+00

     total cpu time spent up to now is     1592.7 secs

     End of self-consistent calculation

          k = 0.0000 0.0000 0.0000 ( 26609 PWs)   bands (ev):

   -10.0521  -8.6412  -6.4925  -3.6322  -1.8036  -1.8036  -1.3093  -0.4975
    -0.4975  -0.4282  -0.4282   1.0222   1.0222   1.5041   1.5041   2.1553

          k = 0.0000 0.0625 0.0000 ( 26567 PWs)   bands (ev):

   -10.0164  -8.6058  -6.4575  -3.5975  -2.3674  -1.7708  -1.2761  -1.0455
    -0.4647  -0.3678   0.1836   0.9615   1.1047   1.5367   1.6011   2.1878

          k = 0.0000 0.1250 0.0000 ( 26551 PWs)   bands (ev):

    -9.9093  -8.4996  -6.3525  -3.4933  -3.2655  -1.9196  -1.6724  -1.1765
    -0.3664  -0.2635   0.1326   1.0371   1.4084   1.6346   2.2845   2.6028

          k = 0.0000 0.1875 0.0000 ( 26600 PWs)   bands (ev):

    -9.7311  -8.3227  -6.1775  -4.1605  -3.3199  -2.8010  -1.5083  -1.0107
    -0.7298  -0.2024  -0.0949   1.2845   1.7979   1.9991   2.4422   2.5215

          k = 0.0000 0.2500 0.0000 ( 26524 PWs)   bands (ev):

    -9.4819  -8.0754  -5.9330  -5.0087  -3.6396  -3.0778  -1.5542  -1.2786
    -0.7789   0.0271   0.1321   1.2427   1.5226   2.0263   2.6503   2.9249

          k = 0.0000 0.3125 0.0000 ( 26528 PWs)   bands (ev):

    -9.1622  -7.7581  -5.7988  -5.6193  -4.4221  -2.7675  -2.3251  -0.9832
    -0.4814   0.2943   0.3222   0.6468   1.7997   2.1696   2.3200   2.7191

          k = 0.0000 0.3750 0.0000 ( 26568 PWs)   bands (ev):

    -8.7723  -7.3713  -6.5264  -5.2369  -5.1433  -3.0364  -2.3898  -0.6221
    -0.2474  -0.1189   0.6828   0.8685   1.4798   1.8598   2.3550   2.6789

          k = 0.0000 0.4375 0.0000 ( 26588 PWs)   bands (ev):

    -8.3130  -7.1890  -6.9155  -5.8004  -4.7865  -3.6850  -1.9460  -0.8684
    -0.1953   0.3076   0.8557   1.1091   1.2877   1.3367   2.1583   2.2961

          k = 0.0000-0.5000 0.0000 ( 26558 PWs)   bands (ev):

    -7.7849  -7.7849  -6.3916  -6.3916  -4.2688  -4.2688  -1.4378  -1.4378
     0.2973   0.2973   0.7955   0.7955   1.6010   1.6010   1.7715   1.7715

          k = 0.0625 0.0625 0.0000 ( 26537 PWs)   bands (ev):

    -9.9807  -8.5704  -6.4225  -3.5627  -2.3345  -2.3345  -1.2429  -1.0032
    -1.0032   0.2433   0.2433   1.0214   1.0214   1.6479   1.6479   2.2197

          k = 0.0625 0.1250 0.0000 ( 26552 PWs)   bands (ev):

    -9.8737  -8.4642  -6.3175  -3.4586  -3.2319  -2.2403  -1.8746  -1.1434
    -0.9013   0.1690   0.3516   1.1194   1.2885   1.7792   2.3135   2.6825

          k = 0.0625 0.1875 0.0000 ( 26573 PWs)   bands (ev):

    -9.6955  -8.2873  -6.1426  -4.1265  -3.2854  -2.7696  -2.0607  -0.9777
    -0.7500  -0.6794   0.5171   1.2688   1.8621   2.0970   2.4553   2.5621

          k = 0.0625 0.2500 0.0000 ( 26585 PWs)   bands (ev):

    -9.4464  -8.0401  -5.8982  -4.9743  -3.6059  -3.0434  -1.8299  -1.5211
    -0.7461  -0.5005   0.7221   1.2350   1.6079   2.1029   2.3344   2.7901

          k = 0.0625 0.3125 0.0000 ( 26555 PWs)   bands (ev):

    -9.1267  -7.7229  -5.7642  -5.5845  -4.3879  -2.7332  -2.2914  -1.5313
    -0.4489  -0.2030   0.4602   1.1132   1.6359   1.8443   2.3327   2.7892

          k = 0.0625 0.3750 0.0000 ( 26555 PWs)   bands (ev):

    -8.7369  -7.3362  -6.4916  -5.2022  -5.1089  -3.0024  -2.3559  -1.1683
    -0.1979  -0.0872   0.1597   0.9539   1.4544   1.9786   2.1962   2.2787

          k = 0.0625 0.4375 0.0000 ( 26574 PWs)   bands (ev):

    -8.2777  -7.1540  -6.8805  -5.7657  -4.7519  -3.6508  -1.9127  -0.8701
    -0.6916   0.3303   0.3369   0.5829   1.3953   1.6582   1.8750   2.6170

          k = 0.0625-0.5000 0.0000 ( 26598 PWs)   bands (ev):

    -7.7498  -7.7498  -6.3567  -6.3567  -4.2344  -4.2344  -1.4063  -1.4063
    -0.2290  -0.2290   0.8003   0.8003   1.1247   1.1247   2.3516   2.3516

          k = 0.1250 0.1250 0.0000 ( 26551 PWs)   bands (ev):

    -9.7667  -8.3581  -6.2125  -3.3547  -3.1316  -3.1316  -1.7769  -1.7769
    -1.0441   0.2669   0.2669   1.4210   1.4210   2.3878   2.7929   2.7929

          k = 0.1250 0.1875 0.0000 ( 26552 PWs)   bands (ev):

    -9.5887  -8.1814  -6.0378  -4.0244  -3.1817  -2.9738  -2.6475  -1.6097
    -0.8787  -0.5954   0.4252   1.5737   2.2205   2.2465   2.5693   2.7246

          k = 0.1250 0.2500 0.0000 ( 26563 PWs)   bands (ev):

    -9.3397  -7.9343  -5.7936  -4.8713  -3.5068  -2.9401  -2.7165  -1.4342
    -1.3597  -0.6477   0.6251   1.3855   1.5228   1.8850   2.8646   2.8667

          k = 0.1250 0.3125 0.0000 ( 26555 PWs)   bands (ev):

    -9.0203  -7.6174  -5.6604  -5.4802  -4.2857  -2.6306  -2.4165  -2.1904
    -1.0723  -0.3520   0.5208   0.7824   1.0706   2.1207   2.1529   2.6914

          k = 0.1250 0.3750 0.0000 ( 26573 PWs)   bands (ev):

    -8.6308  -7.2309  -6.3872  -5.0982  -5.0055  -2.9005  -2.2544  -2.0481
    -0.7057  -0.1058   0.0061   0.0938   1.3729   1.4363   2.0847   2.5061

          k = 0.1250 0.4375 0.0000 ( 26557 PWs)   bands (ev):

    -8.1719  -7.0491  -6.7756  -5.6618  -4.6483  -3.5482  -1.8138  -1.6162
    -0.7234  -0.5331  -0.2748   0.4042   0.8378   1.4908   1.7885   2.8136

          k = 0.1250-0.5000 0.0000 ( 26554 PWs)   bands (ev):

    -7.6444  -7.6444  -6.2522  -6.2522  -4.1313  -4.1313  -1.3333  -1.3333
    -1.0728  -1.0728   0.2119   0.2119   0.9555   0.9555   2.2730   2.2730

          k = 0.1875 0.1875 0.0000 ( 26561 PWs)   bands (ev):

    -9.4108  -8.0049  -5.8633  -3.8552  -3.8552  -3.0092  -2.4887  -2.4887
    -0.7141  -0.4324  -0.4324   1.4737   2.3013   2.3014   2.8216   2.8311

          k = 0.1875 0.2500 0.0000 ( 26541 PWs)   bands (ev):

    -9.1622  -7.7582  -5.6194  -4.6998  -3.6298  -3.3128  -2.7684  -2.2533
    -1.2528  -0.4847  -0.2083   0.6751   1.5506   2.0182   2.5060   3.0423

          k = 0.1875 0.3125 0.0000 ( 26566 PWs)   bands (ev):

    -8.8431  -7.4416  -5.4876  -5.3065  -4.1175  -3.3001  -2.4603  -2.0276
    -1.9432  -0.1929  -0.0771   0.0531   0.8508   1.2713   2.5762   3.1250

          k = 0.1875 0.3750 0.0000 ( 26569 PWs)   bands (ev):

    -8.4542  -7.0557  -6.2134  -4.9251  -4.8338  -2.9305  -2.7309  -2.0869
    -1.5789  -0.7707  -0.0073   0.1387   0.5878   0.6080   2.1892   2.5877

          k = 0.1875 0.4375 0.0000 ( 26566 PWs)   bands (ev):

    -7.9958  -6.8743  -6.6010  -5.4887  -4.4758  -3.3774  -2.4923  -1.6692
    -1.3818  -1.1433  -0.5728  -0.0918   0.6318   0.9521   1.6338   1.9834

          k = 0.1875-0.5000 0.0000 ( 26550 PWs)   bands (ev):

    -7.4689  -7.4689  -6.0783  -6.0783  -3.9595  -3.9595  -1.9912  -1.9912
    -1.1271  -1.1271  -0.6441  -0.6441   1.1010   1.1010   1.4333   1.4333

          k = 0.2500 0.2500 0.0000 ( 26595 PWs)   bands (ev):

    -8.9140  -7.5119  -5.3760  -4.4610  -4.4610  -3.0873  -3.0873  -2.5290
    -1.0222  -1.0222  -0.2593  -0.1366   1.2135   1.7619   1.7619   3.0644

          k = 0.2500 0.3125 0.0000 ( 26582 PWs)   bands (ev):

    -8.5955  -7.1959  -5.2463  -5.0637  -4.1662  -3.8534  -2.7829  -2.2239
    -1.7867  -0.8944  -0.7308   0.0058   0.4875   1.0422   2.0026   2.4690

          k = 0.2500 0.3750 0.0000 ( 26571 PWs)   bands (ev):

    -8.2072  -6.8107  -5.9704  -4.6831  -4.5960  -3.7662  -2.4957  -2.4081
    -1.8718  -1.5742  -0.4047  -0.2809   0.3994   0.4358   1.8011   2.1233

          k = 0.2500 0.4375 0.0000 ( 26591 PWs)   bands (ev):

    -7.7496  -6.6301  -6.3568  -5.2472  -4.2347  -3.3268  -3.1388  -2.2492
    -1.9709  -1.3988  -0.8994  -0.4099   0.2087   0.8384   1.1856   1.7967

          k = 0.2500-0.5000 0.0000 ( 26572 PWs)   bands (ev):

    -7.2236  -7.2236  -5.8352  -5.8352  -3.7196  -3.7196  -2.8192  -2.8192
    -1.4666  -1.4666  -0.9102  -0.9102   0.6384   0.6384   1.3060   1.3060

          k = 0.3125 0.3125 0.0000 ( 26611 PWs)   bands (ev):

    -8.2777  -6.8807  -4.9374  -4.9374  -4.7523  -3.5592  -3.5592  -1.9394
    -1.6391  -1.4876  -1.4876  -0.3447   0.3702   1.3126   1.3126   1.7394

          k = 0.3125 0.3750 0.0000 ( 26595 PWs)   bands (ev):

    -7.8902  -6.4963  -5.6589  -4.5726  -4.3726  -4.2626  -3.1854  -2.3797
    -2.1905  -1.5353  -1.1283  -1.0289   0.6511   0.7067   1.0597   1.6158

          k = 0.3125 0.4375 0.0000 ( 26596 PWs)   bands (ev):

    -7.4337  -6.3168  -6.0437  -4.9395  -4.1032  -3.9255  -3.0178  -2.8333
    -2.7434  -1.6633  -1.1138  -0.7360   0.0714   0.4468   1.1083   1.7965

          k = 0.3125-0.5000 0.0000 ( 26580 PWs)   bands (ev):

    -6.9089  -6.9089  -5.5237  -5.5237  -3.5943  -3.5943  -3.4119  -3.4119
    -2.2358  -2.2358  -0.6802  -0.6802  -0.0487  -0.0487   1.5333   1.5333

          k = 0.3750 0.3750 0.0000 ( 26618 PWs)   bands (ev):

    -7.5038  -6.1132  -5.2799  -5.2799  -3.9943  -3.8989  -3.8989  -3.0843
    -1.8227  -1.8227  -1.7292  -1.1818   0.3825   0.9865   0.9865   1.0423

          k = 0.3750 0.4375 0.0000 ( 26586 PWs)   bands (ev):

    -7.0485  -5.9351  -5.6623  -4.8451  -4.5368  -3.7287  -3.5488  -3.4557
    -2.4610  -2.3691  -1.3953  -0.8158  -0.1786   0.3875   1.3551   1.4013

          k = 0.3750-0.5000 0.0000 ( 26618 PWs)   bands (ev):

    -6.5253  -6.5253  -5.1462  -5.1462  -4.3066  -4.3066  -3.0372  -3.0372
    -2.9452  -2.9452  -0.9360  -0.9360  -0.1270  -0.1270   1.5995   1.5995

          k = 0.4375 0.4375 0.0000 ( 26638 PWs)   bands (ev):

    -6.5948  -5.4862  -5.4862  -5.2152  -4.3746  -4.1035  -4.1035  -3.1054
    -3.0126  -2.0247  -2.0247  -1.0029  -0.1933   0.7893   0.7893   1.5338

          k = 0.4375-0.5000 0.0000 ( 26666 PWs)   bands (ev):

    -6.0735  -6.0735  -4.9818  -4.9818  -4.6743  -4.6743  -3.5914  -3.5914
    -2.5966  -2.5966  -1.5294  -1.5294   0.2550   0.2550   1.2241   1.2241

          k =-0.5000-0.5000 0.0000 ( 26616 PWs)   bands (ev):

    -5.5550  -5.5550  -5.5550  -5.5550  -4.1719  -4.1719  -4.1719  -4.1719
    -2.0922  -2.0922  -2.0922  -2.0922   0.7234   0.7234   0.7234   0.7234

     the Fermi energy is     0.6752 ev

!    total energy              =     -99.58852160 Ry
     Harris-Foulkes estimate   =     -99.58852161 Ry
     estimated scf accuracy    <       0.00000001 Ry

     The total energy is the sum of the following terms:

     one-electron contribution =    -260.51848506 Ry
     hartree contribution      =     135.80818977 Ry
     xc contribution           =     -79.83788455 Ry
     ewald contribution        =     104.95943896 Ry
     smearing contrib. (-TS)   =       0.00021928 Ry

     convergence has been achieved in   8 iterations

     Forces acting on atoms (Ry/au):


     negative rho (up, down):  7.240E-07 0.000E+00
     atom    1 type  1   force =     0.00000000    0.00000000   -0.00344915
     atom    2 type  1   force =     0.00000000    0.00000000   -0.00344914
     atom    3 type  1   force =     0.00000000    0.00000000   -0.00057840
     atom    4 type  1   force =     0.00000000    0.00000000   -0.00057840
     atom    5 type  1   force =     0.00000000    0.00000000    0.00057839
     atom    6 type  1   force =     0.00000000    0.00000000    0.00057841
     atom    7 type  1   force =     0.00000000    0.00000000    0.00344914
     atom    8 type  1   force =     0.00000000    0.00000000    0.00344914

     Total force =     0.006995     Total SCF correction =     0.000160


     entering subroutine stress ...


     negative rho (up, down):  7.240E-07 0.000E+00
          total   stress  (Ry/bohr**3)                   (kbar)     P=   -9.54
  -0.00011618   0.00000000   0.00000000        -17.09      0.00      0.00
   0.00000000  -0.00011618   0.00000000          0.00    -17.09      0.00
   0.00000000   0.00000000   0.00003771          0.00      0.00      5.55


     number of scf cycles    =   4
     number of bfgs steps    =   3

     energy   old            =     -99.5883505055 Ry
     energy   new            =     -99.5885215962 Ry

     CASE: energy  _new < energy  _old

     new trust radius        =       0.0169876809 bohr
     new conv_thr            =       0.0000000171 Ry


ATOMIC_POSITIONS (crystal)
Al       0.000000000   0.000000000  -0.001075504
Al       0.500000000   0.500000000  -0.001075507
Al       0.500000000   0.000000000   0.100130937
Al       0.000000000   0.500000000   0.100130937
Al       0.000000000   0.000000000   0.199869066
Al       0.500000000   0.500000000   0.199869059
Al       0.500000000   0.000000000   0.301075506
Al       0.000000000   0.500000000   0.301075506



     Writing output data file Al_100_2_3.save
     NEW-OLD atomic charge density approx. for the potential

     negative rho (up, down):  7.304E-07 0.000E+00

     total cpu time spent up to now is     1613.7 secs

     per-process dynamical memory:   377.2 Mb

     Self-consistent Calculation

     iteration #  1     ecut=    80.00 Ry     beta=0.30
     Davidson diagonalization with overlap
     ethr =  1.00E-06,  avg # of iterations =  3.3

     negative rho (up, down):  5.183E-07 0.000E+00

     total cpu time spent up to now is     1679.7 secs

     total energy              =     -99.58872196 Ry
     Harris-Foulkes estimate   =     -99.58872633 Ry
     estimated scf accuracy    <       0.00004687 Ry

     iteration #  2     ecut=    80.00 Ry     beta=0.30
     Davidson diagonalization with overlap
     ethr =  1.95E-07,  avg # of iterations =  1.0

     negative rho (up, down):  4.189E-07 0.000E+00

     total cpu time spent up to now is     1716.8 secs

     total energy              =     -99.58871228 Ry
     Harris-Foulkes estimate   =     -99.58872319 Ry
     estimated scf accuracy    <       0.00002975 Ry

     iteration #  3     ecut=    80.00 Ry     beta=0.30
     Davidson diagonalization with overlap
     ethr =  1.24E-07,  avg # of iterations =  2.0

     negative rho (up, down):  4.201E-07 0.000E+00

     total cpu time spent up to now is     1762.5 secs

     total energy              =     -99.58871829 Ry
     Harris-Foulkes estimate   =     -99.58871906 Ry
     estimated scf accuracy    <       0.00000414 Ry

     iteration #  4     ecut=    80.00 Ry     beta=0.30
     Davidson diagonalization with overlap
     ethr =  1.72E-08,  avg # of iterations =  1.7

     negative rho (up, down):  4.062E-07 0.000E+00

     total cpu time spent up to now is     1801.5 secs

     total energy              =     -99.58871848 Ry
     Harris-Foulkes estimate   =     -99.58871855 Ry
     estimated scf accuracy    <       0.00000101 Ry

     iteration #  5     ecut=    80.00 Ry     beta=0.30
     Davidson diagonalization with overlap
     ethr =  4.22E-09,  avg # of iterations =  1.7

     negative rho (up, down):  4.290E-07 0.000E+00

     total cpu time spent up to now is     1841.9 secs

     total energy              =     -99.58871848 Ry
     Harris-Foulkes estimate   =     -99.58871853 Ry
     estimated scf accuracy    <       0.00000026 Ry

     iteration #  6     ecut=    80.00 Ry     beta=0.30
     Davidson diagonalization with overlap
     ethr =  1.10E-09,  avg # of iterations =  3.0

     negative rho (up, down):  4.832E-07 0.000E+00

     total cpu time spent up to now is     1887.7 secs

     total energy              =     -99.58871856 Ry
     Harris-Foulkes estimate   =     -99.58871854 Ry
     estimated scf accuracy    <       0.00000008 Ry

     iteration #  7     ecut=    80.00 Ry     beta=0.30
     Davidson diagonalization with overlap
     ethr =  3.33E-10,  avg # of iterations =  1.0

     negative rho (up, down):  6.494E-07 0.000E+00

     total cpu time spent up to now is     1927.4 secs

     total energy              =     -99.58871854 Ry
     Harris-Foulkes estimate   =     -99.58871856 Ry
     estimated scf accuracy    <       0.00000011 Ry

     iteration #  8     ecut=    80.00 Ry     beta=0.30
     Davidson diagonalization with overlap
     ethr =  3.33E-10,  avg # of iterations =  1.8

     negative rho (up, down):  6.880E-07 0.000E+00

     total cpu time spent up to now is     1965.4 secs

     End of self-consistent calculation

          k = 0.0000 0.0000 0.0000 ( 26609 PWs)   bands (ev):

   -10.0346  -8.6184  -6.4939  -3.6411  -1.7854  -1.7854  -1.3188  -0.4717
    -0.4717  -0.4104  -0.4104   1.0437   1.0437   1.5029   1.5029   2.1365

          k = 0.0000 0.0625 0.0000 ( 26567 PWs)   bands (ev):

    -9.9989  -8.5829  -6.4588  -3.6063  -2.3493  -1.7525  -1.2856  -1.0208
    -0.4389  -0.3501   0.2019   0.9676   1.1186   1.5356   1.6239   2.1691

          k = 0.0000 0.1250 0.0000 ( 26551 PWs)   bands (ev):

    -9.8918  -8.4767  -6.3538  -3.5022  -3.2477  -1.8955  -1.6541  -1.1860
    -0.3405  -0.2459   0.1327   1.0571   1.4265   1.6335   2.2661   2.6179

          k = 0.0000 0.1875 0.0000 ( 26600 PWs)   bands (ev):

    -9.7136  -8.2998  -6.1788  -4.1428  -3.3288  -2.7772  -1.4900  -1.0202
    -0.7302  -0.1766  -0.0772   1.3052   1.7967   1.9909   2.4243   2.5392

          k = 0.0000 0.2500 0.0000 ( 26524 PWs)   bands (ev):

    -9.4644  -8.0525  -5.9343  -4.9910  -3.6160  -3.0866  -1.5548  -1.2603
    -0.7883   0.0530   0.1499   1.2339   1.5431   2.0251   2.6339   2.9434

          k = 0.0000 0.3125 0.0000 ( 26528 PWs)   bands (ev):

    -9.1447  -7.7352  -5.7812  -5.6205  -4.3988  -2.7762  -2.3258  -0.9649
    -0.4907   0.3022   0.3481   0.6478   1.8189   2.1881   2.3188   2.7136

          k = 0.0000 0.3750 0.0000 ( 26568 PWs)   bands (ev):

    -8.7548  -7.3483  -6.5088  -5.2381  -5.1201  -3.0373  -2.3984  -0.6038
    -0.2541  -0.1280   0.7088   0.8840   1.4982   1.8586   2.3697   2.6776

          k = 0.0000 0.4375 0.0000 ( 26588 PWs)   bands (ev):

    -8.2955  -7.1714  -6.8925  -5.7773  -4.7876  -3.6859  -1.9544  -0.8763
    -0.1769   0.2987   0.8741   1.1352   1.3043   1.3288   2.1845   2.3128

          k = 0.0000-0.5000 0.0000 ( 26558 PWs)   bands (ev):

    -7.7674  -7.7674  -6.3685  -6.3685  -4.2698  -4.2698  -1.4460  -1.4460
     0.3157   0.3157   0.7868   0.7868   1.6271   1.6271   1.7885   1.7885

          k = 0.0625 0.0625 0.0000 ( 26537 PWs)   bands (ev):

    -9.9632  -8.5475  -6.4238  -3.5716  -2.3165  -2.3165  -1.2524  -0.9784
    -0.9784   0.2613   0.2613   1.0211   1.0211   1.6695   1.6695   2.2011

          k = 0.0625 0.1250 0.0000 ( 26552 PWs)   bands (ev):

    -9.8562  -8.4413  -6.3188  -3.4675  -3.2140  -2.2221  -1.8506  -1.1529
    -0.8764   0.1686   0.3695   1.1186   1.3070   1.8003   2.2953   2.7042

          k = 0.0625 0.1875 0.0000 ( 26573 PWs)   bands (ev):

    -9.6780  -8.2645  -6.1439  -4.1087  -3.2942  -2.7458  -2.0427  -0.9872
    -0.7308  -0.6744   0.5350   1.2677   1.8840   2.0888   2.4392   2.5799

          k = 0.0625 0.2500 0.0000 ( 26585 PWs)   bands (ev):

    -9.4289  -8.0173  -5.8994  -4.9566  -3.5824  -3.0521  -1.8119  -1.5216
    -0.7554  -0.4758   0.7392   1.2285   1.6056   2.1244   2.3477   2.7771

          k = 0.0625 0.3125 0.0000 ( 26555 PWs)   bands (ev):

    -9.1092  -7.7000  -5.7466  -5.5857  -4.3646  -2.7419  -2.2921  -1.5132
    -0.4582  -0.1782   0.4550   1.1276   1.6539   1.8434   2.3478   2.7891

          k = 0.0625 0.3750 0.0000 ( 26555 PWs)   bands (ev):

    -8.7194  -7.3132  -6.4740  -5.2034  -5.0856  -3.0033  -2.3645  -1.1501
    -0.2057  -0.0963   0.1845   0.9720   1.4711   1.9722   2.1953   2.3040

          k = 0.0625 0.4375 0.0000 ( 26574 PWs)   bands (ev):

    -8.2602  -7.1364  -6.8575  -5.7426  -4.7530  -3.6517  -1.9211  -0.8718
    -0.6799   0.3281   0.3484   0.6073   1.3878   1.6834   1.8922   2.6161

          k = 0.0625-0.5000 0.0000 ( 26598 PWs)   bands (ev):

    -7.7322  -7.7322  -6.3337  -6.3337  -4.2354  -4.2354  -1.4143  -1.4143
    -0.2112  -0.2112   0.7946   0.7946   1.1469   1.1469   2.3689   2.3689

          k = 0.1250 0.1250 0.0000 ( 26551 PWs)   bands (ev):

    -9.7492  -8.3352  -6.2138  -3.3635  -3.1137  -3.1137  -1.7527  -1.7527
    -1.0535   0.2663   0.2663   1.4390   1.4390   2.3718   2.8152   2.8152

          k = 0.1250 0.1875 0.0000 ( 26552 PWs)   bands (ev):

    -9.5712  -8.1585  -6.0391  -4.0066  -3.1905  -2.9556  -2.6241  -1.5855
    -0.8881  -0.5962   0.4245   1.5912   2.2127   2.2568   2.5875   2.7133

          k = 0.1250 0.2500 0.0000 ( 26563 PWs)   bands (ev):

[...]
     hartree contribution      =     133.17068887 Ry
     xc contribution           =     -79.78974677 Ry
     ewald contribution        =     102.23732092 Ry
     smearing contrib. (-TS)   =       0.00024765 Ry

     convergence has been achieved in  11 iterations

     Forces acting on atoms (Ry/au):


     negative rho (up, down):  5.756E-07 0.000E+00
     atom    1 type  1   force =     0.00000000    0.00000000    0.00062754
     atom    2 type  1   force =     0.00000000    0.00000000    0.00062755
     atom    3 type  1   force =     0.00000000    0.00000000   -0.00205995
     atom    4 type  1   force =     0.00000000    0.00000000   -0.00205995
     atom    5 type  1   force =     0.00000000    0.00000000    0.00205995
     atom    6 type  1   force =     0.00000000    0.00000000    0.00206000
     atom    7 type  1   force =     0.00000000    0.00000000   -0.00062757
     atom    8 type  1   force =     0.00000000    0.00000000   -0.00062757

     Total force =     0.004307     Total SCF correction =     0.000155


     entering subroutine stress ...


     negative rho (up, down):  5.756E-07 0.000E+00
          total   stress  (Ry/bohr**3)                   (kbar)     P=  -12.93
  -0.00013205   0.00000000   0.00000000        -19.42      0.00      0.00
   0.00000000  -0.00013205   0.00000000          0.00    -19.42      0.00
   0.00000000   0.00000000   0.00000038          0.00      0.00      0.06


     number of scf cycles    =   9
     number of bfgs steps    =   8

     energy   old            =     -99.5890578584 Ry
     energy   new            =     -99.5891357126 Ry

     CASE: energy  _new < energy  _old

     new trust radius        =       0.0124447891 bohr
     new conv_thr            =       0.0000000100 Ry


ATOMIC_POSITIONS (crystal)
Al       0.000000000   0.000000000  -0.003244253
Al       0.500000000   0.500000000  -0.003244259
Al       0.500000000   0.000000000   0.099278461
Al       0.000000000   0.500000000   0.099278461
Al       0.000000000   0.000000000   0.200721537
Al       0.500000000   0.500000000   0.200721523
Al       0.500000000   0.000000000   0.303244265
Al       0.000000000   0.500000000   0.303244265



     Writing output data file Al_100_2_3.save
     NEW-OLD atomic charge density approx. for the potential

     negative rho (up, down):  6.763E-07 0.000E+00

     total cpu time spent up to now is     4029.1 secs

     per-process dynamical memory:   377.2 Mb

     Self-consistent Calculation

     iteration #  1     ecut=    80.00 Ry     beta=0.30
     Davidson diagonalization with overlap
     ethr =  1.00E-06,  avg # of iterations =  3.5

     negative rho (up, down):  5.743E-07 0.000E+00

     total cpu time spent up to now is     4090.6 secs

     total energy              =     -99.58919220 Ry
     Harris-Foulkes estimate   =     -99.58919935 Ry
     estimated scf accuracy    <       0.00009667 Ry

     iteration #  2     ecut=    80.00 Ry     beta=0.30
     Davidson diagonalization with overlap
     ethr =  4.03E-07,  avg # of iterations =  1.0

     negative rho (up, down):  5.893E-07 0.000E+00

     total cpu time spent up to now is     4126.7 secs

     total energy              =     -99.58917555 Ry
     Harris-Foulkes estimate   =     -99.58919364 Ry
     estimated scf accuracy    <       0.00005993 Ry

     iteration #  3     ecut=    80.00 Ry     beta=0.30
     Davidson diagonalization with overlap
     ethr =  2.50E-07,  avg # of iterations =  2.4

     negative rho (up, down):  5.896E-07 0.000E+00

     total cpu time spent up to now is     4167.7 secs

     total energy              =     -99.58918623 Ry
     Harris-Foulkes estimate   =     -99.58918775 Ry
     estimated scf accuracy    <       0.00000853 Ry

     iteration #  4     ecut=    80.00 Ry     beta=0.30
     Davidson diagonalization with overlap
     ethr =  3.55E-08,  avg # of iterations =  1.5

     negative rho (up, down):  5.870E-07 0.000E+00

     total cpu time spent up to now is     4203.5 secs

     total energy              =     -99.58918665 Ry
     Harris-Foulkes estimate   =     -99.58918683 Ry
     estimated scf accuracy    <       0.00000122 Ry

     iteration #  5     ecut=    80.00 Ry     beta=0.30
     Davidson diagonalization with overlap
     ethr =  5.09E-09,  avg # of iterations =  2.9

     negative rho (up, down):  6.007E-07 0.000E+00

     total cpu time spent up to now is     4245.0 secs

     total energy              =     -99.58918681 Ry
     Harris-Foulkes estimate   =     -99.58918681 Ry
     estimated scf accuracy    <       0.00000001 Ry

     iteration #  6     ecut=    80.00 Ry     beta=0.30
     Davidson diagonalization with overlap
     ethr =  4.61E-11,  avg # of iterations =  3.6

     negative rho (up, down):  6.306E-07 0.000E+00

     total cpu time spent up to now is     4302.7 secs

     total energy              =     -99.58918682 Ry
     Harris-Foulkes estimate   =     -99.58918683 Ry
     estimated scf accuracy    <       0.00000022 Ry

     iteration #  7     ecut=    80.00 Ry     beta=0.30
     Davidson diagonalization with overlap
     ethr =  4.61E-11,  avg # of iterations =  2.0

     negative rho (up, down):  6.588E-07 0.000E+00

     total cpu time spent up to now is     4343.4 secs

     total energy              =     -99.58918680 Ry
     Harris-Foulkes estimate   =     -99.58918682 Ry
     estimated scf accuracy    <       0.00000013 Ry

     iteration #  8     ecut=    80.00 Ry     beta=0.30
     Davidson diagonalization with overlap
     ethr =  4.61E-11,  avg # of iterations =  2.8

     negative rho (up, down):  5.737E-07 0.000E+00

     total cpu time spent up to now is     4388.5 secs

     End of self-consistent calculation

          k = 0.0000 0.0000 0.0000 ( 26609 PWs)   bands (ev):

    -9.9253  -8.5560  -6.4779  -3.6860  -1.6703  -1.6703  -1.3641  -0.4020
    -0.4020  -0.2986  -0.2986   1.1027   1.1027   1.5289   1.5289   2.0371

          k = 0.0000 0.0625 0.0000 ( 26567 PWs)   bands (ev):

    -9.8896  -8.5206  -6.4429  -3.6512  -2.2359  -1.6375  -1.3308  -0.9507
    -0.3693  -0.2421   0.3160   1.0043   1.1623   1.5615   1.6870   2.0700

          k = 0.0000 0.1250 0.0000 ( 26551 PWs)   bands (ev):

    -9.7825  -8.4143  -6.3377  -3.5469  -3.1355  -1.8282  -1.5390  -1.2311
    -0.2709  -0.1372   0.1567   1.1394   1.5133   1.6595   2.1680   2.6478

          k = 0.0000 0.1875 0.0000 ( 26600 PWs)   bands (ev):

    -9.6043  -8.2374  -6.1627  -4.0314  -3.3733  -2.7113  -1.3748  -1.0649
    -0.7087  -0.1069   0.0324   1.3677   1.8227   1.9519   2.3289   2.6480

          k = 0.0000 0.2500 0.0000 ( 26524 PWs)   bands (ev):

    -9.3551  -7.9900  -5.9180  -4.8801  -3.5510  -3.1308  -1.5346  -1.1450
    -0.8326   0.1227   0.2608   1.1897   1.6036   2.0511   2.5458   3.0603

          k = 0.0000 0.3125 0.0000 ( 26528 PWs)   bands (ev):

    -9.0353  -7.6725  -5.6708  -5.6040  -4.3343  -2.8199  -2.3066  -0.8494
    -0.5345   0.3375   0.4179   0.6778   1.8750   2.3047   2.3448   2.6793

          k = 0.0000 0.3750 0.0000 ( 26568 PWs)   bands (ev):

    -8.6454  -7.2855  -6.3987  -5.2213  -5.0562  -3.0187  -2.4416  -0.4882
    -0.2875  -0.1711   0.7787   0.9823   1.6147   1.8439   2.4045   2.7036

          k = 0.0000 0.4375 0.0000 ( 26588 PWs)   bands (ev):

    -8.1859  -7.0615  -6.8295  -5.7137  -4.7705  -3.6680  -1.9968  -0.9154
    -0.0611   0.2566   0.9903   1.2051   1.2915   1.4083   2.2546   2.4172

          k = 0.0000-0.5000 0.0000 ( 26558 PWs)   bands (ev):

    -7.6577  -7.6577  -6.3053  -6.3053  -4.2523  -4.2523  -1.4872  -1.4872
     0.4317   0.4317   0.7463   0.7463   1.6971   1.6971   1.8946   1.8946

          k = 0.0625 0.0625 0.0000 ( 26537 PWs)   bands (ev):

    -9.8539  -8.4851  -6.4078  -3.6164  -2.2030  -2.2030  -1.2976  -0.9101
    -0.9101   0.3730   0.3730   1.0464   1.0464   1.7286   1.7286   2.1025

          k = 0.0625 0.1250 0.0000 ( 26552 PWs)   bands (ev):

    -9.7469  -8.3789  -6.3027  -3.5121  -3.1018  -2.1086  -1.7841  -1.1979
    -0.8084   0.1910   0.4809   1.1426   1.4205   1.8594   2.1987   2.7600

          k = 0.0625 0.1875 0.0000 ( 26573 PWs)   bands (ev):

    -9.5686  -8.2020  -6.1277  -3.9973  -3.3386  -2.6793  -1.9301  -1.0318
    -0.6834  -0.6332   0.6470   1.2905   1.9515   2.0463   2.3512   2.6864

          k = 0.0625 0.2500 0.0000 ( 26585 PWs)   bands (ev):

    -9.3195  -7.9547  -5.8831  -4.8457  -3.5172  -3.0962  -1.6985  -1.5012
    -0.7997  -0.4087   0.8452   1.2054   1.6132   2.1869   2.4133   2.7304

          k = 0.0625 0.3125 0.0000 ( 26555 PWs)   bands (ev):

    -8.9998  -7.6373  -5.6361  -5.5692  -4.3001  -2.7856  -2.2728  -1.3994
    -0.5019  -0.1108   0.4283   1.2226   1.7674   1.8644   2.3858   2.7749

          k = 0.0625 0.3750 0.0000 ( 26555 PWs)   bands (ev):

    -8.6100  -7.2504  -6.3639  -5.1866  -5.0217  -2.9847  -2.4075  -1.0358
    -0.2443  -0.1392   0.2519   1.0861   1.5765   1.9389   2.2175   2.3719

          k = 0.0625 0.4375 0.0000 ( 26574 PWs)   bands (ev):

    -8.1506  -7.0265  -6.7945  -5.6790  -4.7359  -3.6337  -1.9632  -0.8922
    -0.5864   0.2865   0.4619   0.6736   1.3501   1.7506   2.0000   2.6383

          k = 0.0625-0.5000 0.0000 ( 26598 PWs)   bands (ev):

    -7.6225  -7.6225  -6.2704  -6.2704  -4.2179  -4.2179  -1.4547  -1.4547
    -0.0988  -0.0988   0.7619   0.7619   1.2064   1.2064   2.4773   2.4773

          k = 0.1250 0.1250 0.0000 ( 26551 PWs)   bands (ev):

    -9.6399  -8.2727  -6.1977  -3.4080  -3.0013  -3.0013  -1.6866  -1.6866
    -1.0983   0.2883   0.2883   1.5527   1.5527   2.2841   2.8759   2.8759

          k = 0.1250 0.1875 0.0000 ( 26552 PWs)   bands (ev):

    -9.4618  -8.0960  -6.0228  -3.8951  -3.2347  -2.8433  -2.5587  -1.5191
    -0.9326  -0.5757   0.4465   1.7024   2.1694   2.3003   2.6821   2.6992

          k = 0.1250 0.2500 0.0000 ( 26563 PWs)   bands (ev):

    -9.2129  -7.8488  -5.7784  -4.7426  -3.4173  -2.9928  -2.5875  -1.4025
    -1.2820  -0.7011   0.6443   1.3564   1.6522   1.9927   2.7470   2.9588

          k = 0.1250 0.3125 0.0000 ( 26555 PWs)   bands (ev):

    -8.8934  -7.5317  -5.5322  -5.4648  -4.1976  -2.6827  -2.2864  -2.1715
    -0.9825  -0.4045   0.4880   0.9133   1.0770   2.2123   2.2764   2.6558

          k = 0.1250 0.3750 0.0000 ( 26573 PWs)   bands (ev):

    -8.5038  -7.1451  -6.2594  -5.0825  -4.9182  -2.8826  -2.3055  -1.9173
    -0.6156  -0.1532  -0.0448   0.2240   1.3906   1.5266   2.0405   2.6324

          k = 0.1250 0.4375 0.0000 ( 26557 PWs)   bands (ev):

    -8.0448  -6.9216  -6.6895  -5.5750  -4.6322  -3.5310  -1.8630  -1.4846
    -0.7742  -0.4047  -0.1847   0.3640   0.9181   1.4434   1.8077   2.8306

          k = 0.1250-0.5000 0.0000 ( 26554 PWs)   bands (ev):

    -7.5171  -7.5171  -6.1658  -6.1658  -4.1147  -4.1147  -1.3637  -1.3637
    -0.9627  -0.9627   0.2986   0.2986   0.9099   0.9099   2.2924   2.2924

          k = 0.1875 0.1875 0.0000 ( 26561 PWs)   bands (ev):

    -9.2840  -7.9194  -5.8482  -3.7256  -3.7256  -3.0619  -2.3998  -2.3998
    -0.7676  -0.4123  -0.4123   1.6025   2.2674   2.2674   2.6885   2.9449

          k = 0.1875 0.2500 0.0000 ( 26541 PWs)   bands (ev):

    -9.0353  -7.6726  -5.6042  -4.5710  -3.5000  -3.2250  -2.8207  -2.1640
    -1.2340  -0.5374  -0.1882   0.8056   1.5033   2.1092   2.4624   2.8914

          k = 0.1875 0.3125 0.0000 ( 26566 PWs)   bands (ev):

    -8.7162  -7.3559  -5.3593  -5.2910  -4.0286  -3.1719  -2.5117  -2.0033
    -1.8600  -0.2441   0.0525   0.0706   0.8033   1.3609   2.5395   3.0675

          k = 0.1875 0.3750 0.0000 ( 26569 PWs)   bands (ev):

    -8.3271  -6.9698  -6.0855  -4.9093  -4.7463  -2.8011  -2.7128  -2.1366
    -1.4900  -0.6428  -0.0427   0.0980   0.5917   0.6875   2.1478   2.6033

          k = 0.1875 0.4375 0.0000 ( 26566 PWs)   bands (ev):

    -7.8687  -6.7468  -6.5148  -5.4018  -4.4596  -3.3601  -2.3621  -1.7026
    -1.2700  -1.0541  -0.6218  -0.0068   0.5863   0.9685   1.5875   2.0018

          k = 0.1875-0.5000 0.0000 ( 26550 PWs)   bands (ev):

    -7.3416  -7.3416  -5.9918  -5.9918  -3.9429  -3.9429  -1.8600  -1.8600
    -1.1792  -1.1792  -0.5549  -0.5549   1.0525   1.0525   1.4515   1.4515

          k = 0.2500 0.2500 0.0000 ( 26595 PWs)   bands (ev):

    -8.7870  -7.4262  -5.3606  -4.3318  -4.3318  -2.9994  -2.9994  -2.5806
    -1.0028  -1.0028  -0.3106  -0.0071   1.3029   1.7136   1.7136   3.0053

          k = 0.2500 0.3125 0.0000 ( 26582 PWs)   bands (ev):

    -8.4685  -7.1101  -5.1178  -5.0480  -4.0368  -3.7663  -2.6945  -2.2737
    -1.7683  -0.7668  -0.7113  -0.0353   0.5667   0.9917   1.9573   2.4839

          k = 0.2500 0.3750 0.0000 ( 26571 PWs)   bands (ev):

    -8.0801  -6.7246  -5.8424  -4.6671  -4.5075  -3.6384  -2.4758  -2.3217
    -1.9067  -1.4614  -0.3881  -0.1967   0.3506   0.3903   1.8192   2.0857

          k = 0.2500 0.4375 0.0000 ( 26591 PWs)   bands (ev):

    -7.6224  -6.5025  -6.2705  -5.1600  -4.2184  -3.1978  -3.1214  -2.1182
    -1.8824  -1.4515  -0.8106  -0.4460   0.2118   0.7894   1.2033   1.7543

          k = 0.2500-0.5000 0.0000 ( 26572 PWs)   bands (ev):

    -7.0962  -7.0962  -5.7486  -5.7486  -3.7028  -3.7028  -2.6893  -2.6893
    -1.3778  -1.3778  -0.9598  -0.9598   0.6541   0.6541   1.2589   1.2589

          k = 0.3125 0.3125 0.0000 ( 26611 PWs)   bands (ev):

    -8.1506  -6.7947  -4.8086  -4.8086  -4.7363  -3.4719  -3.4719  -1.9749
    -1.5260  -1.4687  -1.4687  -0.2607   0.3247   1.2631   1.2631   1.7573

          k = 0.3125 0.3750 0.0000 ( 26595 PWs)   bands (ev):

    -7.7630  -6.4101  -5.5306  -4.4435  -4.3564  -4.1759  -3.0978  -2.2488
    -2.1722  -1.5881  -1.1092  -0.9402   0.5997   0.6573   1.0772   1.5701

          k = 0.3125 0.4375 0.0000 ( 26596 PWs)   bands (ev):

    -7.3064  -6.1890  -5.9571  -4.8513  -3.9756  -3.9089  -2.8881  -2.8160
    -2.6550  -1.5746  -1.1636  -0.7199   0.0222   0.4622   1.0608   1.7585

          k = 0.3125-0.5000 0.0000 ( 26580 PWs)   bands (ev):

    -6.7814  -6.7814  -5.4367  -5.4367  -3.4655  -3.4655  -3.3949  -3.3949
    -2.1474  -2.1474  -0.7166  -0.7166  -0.0461  -0.0461   1.4904   1.4904

          k = 0.3750 0.3750 0.0000 ( 26618 PWs)   bands (ev):

    -7.3765  -6.0268  -5.1513  -5.1513  -3.9778  -3.8120  -3.8120  -2.9546
    -1.8041  -1.8041  -1.6406  -1.2317   0.3978   0.9367   0.9367   0.9946

          k = 0.3750 0.4375 0.0000 ( 26586 PWs)   bands (ev):

    -6.9211  -5.8070  -5.5754  -4.7161  -4.4505  -3.6001  -3.5320  -3.3686
    -2.4428  -2.2807  -1.3764  -0.8523  -0.1762   0.3358   1.3093   1.3581

          k = 0.3750-0.5000 0.0000 ( 26618 PWs)   bands (ev):

    -6.3975  -6.3975  -5.0582  -5.0582  -4.1792  -4.1792  -3.0213  -3.0213
    -2.8559  -2.8559  -0.9203  -0.9203  -0.1763  -0.1763   1.5613   1.5613

          k = 0.4375 0.4375 0.0000 ( 26638 PWs)   bands (ev):

    -6.4671  -5.3577  -5.3577  -5.1273  -4.2472  -4.0169  -4.0169  -3.0898
    -2.9230  -2.0062  -2.0062  -0.9873  -0.2427   0.7393   0.7393   1.4955

          k = 0.4375-0.5000 0.0000 ( 26666 PWs)   bands (ev):

    -5.9455  -5.9455  -4.8528  -4.8528  -4.5882  -4.5882  -3.5045  -3.5045
    -2.5784  -2.5784  -1.5106  -1.5106   0.2032   0.2032   1.1782   1.1782

          k =-0.5000-0.5000 0.0000 ( 26616 PWs)   bands (ev):

    -5.4266  -5.4266  -5.4266  -5.4266  -4.0854  -4.0854  -4.0854  -4.0854
    -2.0737  -2.0737  -2.0737  -2.0737   0.6733   0.6733   0.6733   0.6733

     the Fermi energy is     0.6978 ev

!    total energy              =     -99.58918681 Ry
     Harris-Foulkes estimate   =     -99.58918681 Ry
     estimated scf accuracy    <          6.9E-10 Ry

     The total energy is the sum of the following terms:

     one-electron contribution =    -254.63325198 Ry
     hartree contribution      =     132.88466315 Ry
     xc contribution           =     -79.78611745 Ry
     ewald contribution        =     101.94530248 Ry
     smearing contrib. (-TS)   =       0.00021698 Ry

     convergence has been achieved in   8 iterations

     Forces acting on atoms (Ry/au):


     negative rho (up, down):  5.737E-07 0.000E+00
     atom    1 type  1   force =     0.00000000    0.00000000    0.00039417
     atom    2 type  1   force =     0.00000000    0.00000000    0.00039418
     atom    3 type  1   force =     0.00000000    0.00000000   -0.00053374
     atom    4 type  1   force =     0.00000000    0.00000000   -0.00053374
     atom    5 type  1   force =     0.00000000    0.00000000    0.00053376
     atom    6 type  1   force =     0.00000000    0.00000000    0.00053380
     atom    7 type  1   force =     0.00000000    0.00000000   -0.00039421
     atom    8 type  1   force =     0.00000000    0.00000000   -0.00039421

     Total force =     0.001327     Total SCF correction =     0.000029


     entering subroutine stress ...


     negative rho (up, down):  5.737E-07 0.000E+00
          total   stress  (Ry/bohr**3)                   (kbar)     P=  -13.23
  -0.00013368   0.00000000   0.00000000        -19.67      0.00      0.00
   0.00000000  -0.00013368   0.00000000          0.00    -19.67      0.00
   0.00000000   0.00000000  -0.00000239          0.00      0.00     -0.35


     bfgs converged in  10 scf cycles and   9 bfgs steps
     (criteria: energy <  1.0E-04, force <  1.0E-03)

     End of BFGS Geometry Optimization

     Final energy   =     -99.5891868106 Ry
Begin final coordinates

ATOMIC_POSITIONS (crystal)
Al       0.000000000   0.000000000  -0.003244253
Al       0.500000000   0.500000000  -0.003244259
Al       0.500000000   0.000000000   0.099278461
Al       0.000000000   0.500000000   0.099278461
Al       0.000000000   0.000000000   0.200721537
Al       0.500000000   0.500000000   0.200721523
Al       0.500000000   0.000000000   0.303244265
Al       0.000000000   0.500000000   0.303244265
End final coordinates



     Writing output data file Al_100_2_3.save

     init_run     :     26.34s CPU     29.44s WALL (       1 calls)
     electrons    :   3414.11s CPU   4176.02s WALL (      10 calls)
     update_pot   :      2.51s CPU      2.77s WALL (       9 calls)
     forces       :     62.33s CPU     63.39s WALL (      10 calls)
     stress       :    132.43s CPU    134.42s WALL (      10 calls)

     Called by init_run:
     wfcinit      :     25.76s CPU     28.84s WALL (       1 calls)
     potinit      :      0.11s CPU      0.13s WALL (       1 calls)

     Called by electrons:
     c_bands      :   2910.90s CPU   3519.28s WALL (      99 calls)
     sum_band     :    381.73s CPU    499.01s WALL (      99 calls)
     v_of_rho     :      9.74s CPU     11.40s WALL (     107 calls)
     newd         :      8.02s CPU      8.32s WALL (     107 calls)
     mix_rho      :    104.93s CPU    139.29s WALL (      99 calls)

     Called by c_bands:
     init_us_2    :     62.09s CPU     70.79s WALL (    9855 calls)
     cegterg      :   2847.28s CPU   3446.35s WALL (    4455 calls)

     Called by *egterg:
     h_psi        :   1688.66s CPU   2167.95s WALL (   12823 calls)
     s_psi        :    273.56s CPU    284.31s WALL (   12823 calls)
     g_psi        :      9.85s CPU     11.92s WALL (    8323 calls)
     cdiaghg      :      5.97s CPU      7.44s WALL (   12283 calls)

     Called by h_psi:
     add_vuspsi   :    276.18s CPU    283.91s WALL (   12823 calls)

     General routines
     calbec       :    427.94s CPU    444.53s WALL (   18178 calls)
     fft          :      5.60s CPU      7.89s WALL (    1646 calls)
     ffts         :     72.59s CPU     97.12s WALL (   19957 calls)
     fftw         :   1266.64s CPU   1797.19s WALL (  405996 calls)
     davcio       :      0.01s CPU      0.17s WALL (      45 calls)

     Parallel routines
     fft_scatter  :     48.40s CPU     78.28s WALL (  427599 calls)

     PWSCF        :     1h 0m CPU        1h13m WALL


   This run was terminated on:  19: 5: 0  28May2020            

=------------------------------------------------------------------------------=
   JOB DONE.
=------------------------------------------------------------------------------=
