
     Program PWSCF v.6.4.1 starts on  5Jun2020 at  7:13:25 

     This program is part of the open-source Quantum ESPRESSO suite
     for quantum simulation of materials; please cite
         "P. Giannozzi et al., J. Phys.:Condens. Matter 21 395502 (2009);
         "P. Giannozzi et al., J. Phys.:Condens. Matter 29 465901 (2017);
          URL http://www.quantum-espresso.org", 
     in publications or presentations arising from this work. More details at
     http://www.quantum-espresso.org/quote

     Parallel version (MPI), running on     1 processors

     MPI processes distributed on     1 nodes
     Reading input from Al_111_H4_hole_A_site_1.pw.in

     Current dimensions of program PWSCF are:
     Max number of different atomic species (ntypx) = 10
     Max number of k-points (npk) =  40000
     Max angular momentum in pseudopotentials (lmaxx) =  3
               file H.pbe-rrkjus.UPF: wavefunction(s)  1S renormalized

     Subspace diagonalization in iterative solution of the eigenvalue problem:
     a serial algorithm will be used


     G-vector sticks info
     --------------------
     sticks:   dense  smooth     PW     G-vecs:    dense   smooth      PW
     Sum        1189     955    271               490481   351617   53557



     bravais-lattice index     =            4
     lattice parameter (alat)  =      10.7520  a.u.
     unit-cell volume          =   15820.6847 (a.u.)^3
     number of atoms/cell      =           37
     number of atomic types    =            2
     number of electrons       =       109.00
     number of Kohn-Sham states=           66
     kinetic-energy cutoff     =      30.0000  Ry
     charge density cutoff     =     150.0000  Ry
     convergence threshold     =      3.6E-05
     mixing beta               =       0.3000
     number of iterations used =            8  local-TF  mixing
     Exchange-correlation      =  SLA  PW   PBE  PBE ( 1  4  3  4 0 0)
     nstep                     =           50


     celldm(1)=  10.752000  celldm(2)=   0.000000  celldm(3)=  14.696938
     celldm(4)=   0.000000  celldm(5)=   0.000000  celldm(6)=   0.000000

     crystal axes: (cart. coord. in units of alat)
               a(1) = (   1.000000   0.000000   0.000000 )  
               a(2) = (  -0.500000   0.866025   0.000000 )  
               a(3) = (   0.000000   0.000000  14.696938 )  

     reciprocal axes: (cart. coord. in units 2 pi/alat)
               b(1) = (  1.000000  0.577350 -0.000000 )  
               b(2) = (  0.000000  1.154701  0.000000 )  
               b(3) = (  0.000000 -0.000000  0.068041 )  


     PseudoPot. # 1 for Al read from file:
     ./Al.pbe-n-van.UPF
     MD5 check sum: b11ded24487aef5bc42d5c7a2e22a7b6
     Pseudo is Ultrasoft + core correction, Zval =  3.0
     Generated by new atomic code, or converted to UPF format
     Using radial grid of  893 points,  2 beta functions with: 
                l(1) =   0
                l(2) =   1
     Q(r) pseudized with  8 coefficients,  rinner =    0.900   0.900   0.900


     PseudoPot. # 2 for H  read from file:
     ./H.pbe-rrkjus.UPF
     MD5 check sum: 0433647300470310da31d564c103eed6
     Pseudo is Ultrasoft, Zval =  1.0
     Generated by new atomic code, or converted to UPF format
     Using radial grid of 1061 points,  2 beta functions with: 
                l(1) =   0
                l(2) =   0
     Q(r) pseudized with 0 coefficients 


     atomic species   valence    mass     pseudopotential
        Al             3.00    26.98000     Al( 1.00)
        H              1.00     1.00790     H ( 1.00)

      6 Sym. Ops. (no inversion) found



   Cartesian axes

     site n.     atom                  positions (alat units)
         1           Al  tau(   1) = (   0.2500002   0.1443374   0.8164957  )
         2           Al  tau(   2) = (   0.0000002   0.5773501   0.8164957  )
         3           Al  tau(   3) = (   0.7500002   0.1443374   0.8164957  )
         4           Al  tau(   4) = (   0.5000002   0.5773501   0.8164957  )
         5           Al  tau(   5) = (   0.0000000   0.0000000   0.0000000  )
         6           Al  tau(   6) = (  -0.2500000   0.4330127   0.0000000  )
         7           Al  tau(   7) = (   0.5000000   0.0000000   0.0000000  )
         8           Al  tau(   8) = (   0.2500000   0.4330127   0.0000000  )
         9           Al  tau(   9) = (  -0.0000003   0.2886753   1.6329939  )
        10           Al  tau(  10) = (  -0.2500003   0.7216880   1.6329939  )
        11           Al  tau(  11) = (   0.4999998   0.2886753   1.6329939  )
        12           Al  tau(  12) = (   0.2499998   0.7216880   1.6329939  )
        13           Al  tau(  13) = (   0.2500002   0.1443374   3.2659855  )
        14           Al  tau(  14) = (   0.0000002   0.5773501   3.2659855  )
        15           Al  tau(  15) = (   0.7500002   0.1443374   3.2659855  )
        16           Al  tau(  16) = (   0.5000002   0.5773501   3.2659855  )
        17           Al  tau(  17) = (   0.0000000   0.0000000   2.4494897  )
        18           Al  tau(  18) = (  -0.2500000   0.4330127   2.4494897  )
        19           Al  tau(  19) = (   0.5000000   0.0000000   2.4494897  )
        20           Al  tau(  20) = (   0.2500000   0.4330127   2.4494897  )
        21           Al  tau(  21) = (  -0.0000003   0.2886753   4.0824837  )
        22           Al  tau(  22) = (  -0.2500003   0.7216880   4.0824837  )
        23           Al  tau(  23) = (   0.4999998   0.2886753   4.0824837  )
        24           Al  tau(  24) = (   0.2499998   0.7216880   4.0824837  )
        25           Al  tau(  25) = (   0.2500002   0.1443374   5.7154752  )
        26           Al  tau(  26) = (   0.0000002   0.5773501   5.7154752  )
        27           Al  tau(  27) = (   0.7500002   0.1443374   5.7154752  )
        28           Al  tau(  28) = (   0.5000002   0.5773501   5.7154752  )
        29           Al  tau(  29) = (   0.0000000   0.0000000   4.8989795  )
        30           Al  tau(  30) = (  -0.2500000   0.4330127   4.8989795  )
        31           Al  tau(  31) = (   0.5000000   0.0000000   4.8989795  )
        32           Al  tau(  32) = (   0.2500000   0.4330127   4.8989795  )
        33           Al  tau(  33) = (  -0.0000003   0.2886753   6.5319734  )
        34           Al  tau(  34) = (  -0.2500003   0.7216880   6.5319734  )
        35           Al  tau(  35) = (   0.4999998   0.2886753   6.5319734  )
        36           Al  tau(  36) = (   0.2499998   0.7216880   6.5319734  )
        37           H   tau(  37) = (   0.0000000   0.0000000   5.3072271  )

     number of k points=    44  Marzari-Vanderbilt smearing, width (Ry)=  0.0250
                       cart. coord. in units 2pi/alat
        k(    1) = (   0.0000000   0.0000000   0.0000000), wk =   0.0050000
        k(    2) = (   0.0000000   0.0577350   0.0000000), wk =   0.0300000
        k(    3) = (   0.0000000   0.1154701   0.0000000), wk =   0.0300000
        k(    4) = (   0.0000000   0.1732051   0.0000000), wk =   0.0300000
        k(    5) = (   0.0000000   0.2309401   0.0000000), wk =   0.0300000
        k(    6) = (   0.0000000   0.2886751   0.0000000), wk =   0.0300000
        k(    7) = (   0.0000000   0.3464102   0.0000000), wk =   0.0300000
        k(    8) = (   0.0000000   0.4041452   0.0000000), wk =   0.0300000
        k(    9) = (   0.0000000   0.4618802   0.0000000), wk =   0.0300000
        k(   10) = (   0.0000000   0.5196152   0.0000000), wk =   0.0300000
        k(   11) = (   0.0000000  -0.5773503   0.0000000), wk =   0.0150000
        k(   12) = (   0.0500000   0.0866025   0.0000000), wk =   0.0300000
        k(   13) = (   0.0500000   0.1443376   0.0000000), wk =   0.0600000
        k(   14) = (   0.0500000   0.2020726   0.0000000), wk =   0.0600000
        k(   15) = (   0.0500000   0.2598076   0.0000000), wk =   0.0600000
        k(   16) = (   0.0500000   0.3175426   0.0000000), wk =   0.0600000
        k(   17) = (   0.0500000   0.3752777   0.0000000), wk =   0.0600000
        k(   18) = (   0.0500000   0.4330127   0.0000000), wk =   0.0600000
        k(   19) = (   0.0500000   0.4907477   0.0000000), wk =   0.0600000
        k(   20) = (   0.0500000   0.5484828   0.0000000), wk =   0.0600000
        k(   21) = (   0.1000000   0.1732051   0.0000000), wk =   0.0300000
        k(   22) = (   0.1000000   0.2309401   0.0000000), wk =   0.0600000
        k(   23) = (   0.1000000   0.2886751   0.0000000), wk =   0.0600000
        k(   24) = (   0.1000000   0.3464102   0.0000000), wk =   0.0600000
        k(   25) = (   0.1000000   0.4041452   0.0000000), wk =   0.0600000
        k(   26) = (   0.1000000   0.4618802   0.0000000), wk =   0.0600000
        k(   27) = (   0.1000000   0.5196152   0.0000000), wk =   0.0600000
        k(   28) = (   0.1000000   0.5773503   0.0000000), wk =   0.0300000
        k(   29) = (   0.1500000   0.2598076   0.0000000), wk =   0.0300000
        k(   30) = (   0.1500000   0.3175426   0.0000000), wk =   0.0600000
        k(   31) = (   0.1500000   0.3752777   0.0000000), wk =   0.0600000
        k(   32) = (   0.1500000   0.4330127   0.0000000), wk =   0.0600000
        k(   33) = (   0.1500000   0.4907477   0.0000000), wk =   0.0600000
        k(   34) = (   0.1500000   0.5484828   0.0000000), wk =   0.0600000
        k(   35) = (   0.2000000   0.3464102   0.0000000), wk =   0.0300000
        k(   36) = (   0.2000000   0.4041452   0.0000000), wk =   0.0600000
        k(   37) = (   0.2000000   0.4618802   0.0000000), wk =   0.0600000
        k(   38) = (   0.2000000   0.5196152   0.0000000), wk =   0.0600000
        k(   39) = (   0.2000000   0.5773503   0.0000000), wk =   0.0300000
        k(   40) = (   0.2500000   0.4330127   0.0000000), wk =   0.0300000
        k(   41) = (   0.2500000   0.4907477   0.0000000), wk =   0.0600000
        k(   42) = (   0.2500000   0.5484828   0.0000000), wk =   0.0600000
        k(   43) = (   0.3000000   0.5196152   0.0000000), wk =   0.0300000
        k(   44) = (   0.3000000   0.5773503   0.0000000), wk =   0.0300000

     Dense  grid:   490481 G-vectors     FFT dimensions: (  45,  45, 625)

     Smooth grid:   351617 G-vectors     FFT dimensions: (  40,  40, 576)

     Estimated max dynamical RAM per process >       3.26 GB

     Initial potential from superposition of free atoms

     starting charge  108.81504, renormalised to  109.00000

     negative rho (up, down):  2.531E-04 0.000E+00
     Starting wfcs are  145 randomized atomic wfcs

     total cpu time spent up to now is     1711.0 secs

     Self-consistent Calculation

     iteration #  1     ecut=    30.00 Ry     beta= 0.30
     Davidson diagonalization with overlap
     ethr =  1.00E-02,  avg # of iterations =  2.8

     negative rho (up, down):  4.707E-04 0.000E+00

     total cpu time spent up to now is     4642.5 secs

     total energy              =    -449.47030828 Ry
     Harris-Foulkes estimate   =    -451.61599430 Ry
     estimated scf accuracy    <     989.85032555 Ry

     iteration #  2     ecut=    30.00 Ry     beta= 0.30
     Davidson diagonalization with overlap
     ethr =  1.00E-02,  avg # of iterations =  1.0

     negative rho (up, down):  6.999E-03 0.000E+00

     total cpu time spent up to now is     6479.0 secs

     total energy              =    -445.52887732 Ry
     Harris-Foulkes estimate   =    -449.75981249 Ry
     estimated scf accuracy    <     541.17461530 Ry

     iteration #  3     ecut=    30.00 Ry     beta= 0.30
     Davidson diagonalization with overlap
     ethr =  1.00E-02,  avg # of iterations =  3.2

     negative rho (up, down):  2.576E-03 0.000E+00

     total cpu time spent up to now is     8385.5 secs

     total energy              =    -448.48699078 Ry
     Harris-Foulkes estimate   =    -447.34573218 Ry
     estimated scf accuracy    <      73.42972571 Ry

     iteration #  4     ecut=    30.00 Ry     beta= 0.30
     Davidson diagonalization with overlap
     ethr =  1.00E-02,  avg # of iterations =  1.3

     negative rho (up, down):  4.130E-02 0.000E+00

     total cpu time spent up to now is    10177.9 secs

     total energy              =    -443.40325245 Ry
     Harris-Foulkes estimate   =    -449.02069273 Ry
     estimated scf accuracy    <     358.62129459 Ry

     iteration #  5     ecut=    30.00 Ry     beta= 0.30
     Davidson diagonalization with overlap
     c_bands:  1 eigenvalues not converged
     c_bands:  1 eigenvalues not converged
     c_bands:  2 eigenvalues not converged
     ethr =  1.00E-02,  avg # of iterations = 11.8

     negative rho (up, down):  2.205E-02 0.000E+00

     total cpu time spent up to now is    13476.0 secs

     total energy              =    -447.98624849 Ry
     Harris-Foulkes estimate   =    -450.28476487 Ry
     estimated scf accuracy    <     473.45118265 Ry

     iteration #  6     ecut=    30.00 Ry     beta= 0.30
     Davidson diagonalization with overlap
     ethr =  1.00E-02,  avg # of iterations =  1.6

     negative rho (up, down):  1.681E-02 0.000E+00

     total cpu time spent up to now is    15273.5 secs

     total energy              =    -448.04766125 Ry
     Harris-Foulkes estimate   =    -448.42583308 Ry
     estimated scf accuracy    <     171.25350131 Ry

     iteration #  7     ecut=    30.00 Ry     beta= 0.30
     Davidson diagonalization with overlap
     ethr =  1.00E-02,  avg # of iterations =  1.1

     negative rho (up, down):  1.496E-02 0.000E+00

     total cpu time spent up to now is    17079.6 secs

     total energy              =    -447.99942055 Ry
     Harris-Foulkes estimate   =    -448.10707605 Ry
     estimated scf accuracy    <      94.71314494 Ry

     iteration #  8     ecut=    30.00 Ry     beta= 0.30
     Davidson diagonalization with overlap
     ethr =  1.00E-02,  avg # of iterations =  1.0

     negative rho (up, down):  1.362E-02 0.000E+00

     total cpu time spent up to now is    18873.3 secs

     total energy              =    -447.92086622 Ry
     Harris-Foulkes estimate   =    -448.01213179 Ry
     estimated scf accuracy    <      68.54119152 Ry

     iteration #  9     ecut=    30.00 Ry     beta= 0.30
     Davidson diagonalization with overlap
     ethr =  1.00E-02,  avg # of iterations =  1.1

     negative rho (up, down):  3.970E-03 0.000E+00

     total cpu time spent up to now is    20679.9 secs

     total energy              =    -447.20457791 Ry
     Harris-Foulkes estimate   =    -447.93213609 Ry
     estimated scf accuracy    <      46.41819342 Ry

     iteration # 10     ecut=    30.00 Ry     beta= 0.30
     Davidson diagonalization with overlap
     ethr =  1.00E-02,  avg # of iterations =  2.0

     negative rho (up, down):  3.693E-03 0.000E+00

     total cpu time spent up to now is    22474.2 secs

     total energy              =    -447.95109416 Ry
     Harris-Foulkes estimate   =    -447.92701061 Ry
     estimated scf accuracy    <      33.12298832 Ry

     iteration # 11     ecut=    30.00 Ry     beta= 0.30
     Davidson diagonalization with overlap
     ethr =  1.00E-02,  avg # of iterations =  1.5

     negative rho (up, down):  7.729E-03 0.000E+00

     total cpu time spent up to now is    24253.9 secs

     total energy              =    -447.63638279 Ry
     Harris-Foulkes estimate   =    -448.00206365 Ry
     estimated scf accuracy    <      46.87916389 Ry

     iteration # 12     ecut=    30.00 Ry     beta= 0.30
     Davidson diagonalization with overlap
     ethr =  1.00E-02,  avg # of iterations =  1.0

     negative rho (up, down):  6.555E-03 0.000E+00

     total cpu time spent up to now is    26052.6 secs

     total energy              =    -447.78781177 Ry
     Harris-Foulkes estimate   =    -447.78686309 Ry
     estimated scf accuracy    <       1.76448771 Ry

     iteration # 13     ecut=    30.00 Ry     beta= 0.30
     Davidson diagonalization with overlap
     ethr =  1.62E-03,  avg # of iterations =  4.1

     negative rho (up, down):  8.037E-03 0.000E+00

     total cpu time spent up to now is    28029.4 secs

     total energy              =    -447.80692661 Ry
     Harris-Foulkes estimate   =    -447.83947556 Ry
     estimated scf accuracy    <       7.12030175 Ry

     iteration # 14     ecut=    30.00 Ry     beta= 0.30
     Davidson diagonalization with overlap
     ethr =  1.62E-03,  avg # of iterations =  1.3

     negative rho (up, down):  7.798E-03 0.000E+00

     total cpu time spent up to now is    29846.8 secs

     total energy              =    -447.81963714 Ry
     Harris-Foulkes estimate   =    -447.81901442 Ry
     estimated scf accuracy    <       1.16940311 Ry

     iteration # 15     ecut=    30.00 Ry     beta= 0.30
     Davidson diagonalization with overlap
     ethr =  1.07E-03,  avg # of iterations =  1.4

     negative rho (up, down):  7.834E-03 0.000E+00

     total cpu time spent up to now is    31661.9 secs

     total energy              =    -447.82827217 Ry
     Harris-Foulkes estimate   =    -447.82279522 Ry
     estimated scf accuracy    <       1.57710281 Ry

     iteration # 16     ecut=    30.00 Ry     beta= 0.30
     Davidson diagonalization with overlap
     ethr =  1.07E-03,  avg # of iterations =  1.4

     negative rho (up, down):  8.910E-03 0.000E+00

     total cpu time spent up to now is    33460.6 secs

     total energy              =    -447.86462175 Ry
     Harris-Foulkes estimate   =    -447.83757049 Ry
     estimated scf accuracy    <       4.37571237 Ry

     iteration # 17     ecut=    30.00 Ry     beta= 0.30
     Davidson diagonalization with overlap
     ethr =  1.07E-03,  avg # of iterations =  2.2

     negative rho (up, down):  8.697E-03 0.000E+00

     total cpu time spent up to now is    35348.8 secs

     total energy              =    -447.93698236 Ry
     Harris-Foulkes estimate   =    -447.90602288 Ry
     estimated scf accuracy    <      22.75277103 Ry

     iteration # 18     ecut=    30.00 Ry     beta= 0.30
     Davidson diagonalization with overlap
     ethr =  1.07E-03,  avg # of iterations =  2.2

     negative rho (up, down):  8.047E-03 0.000E+00

     total cpu time spent up to now is    37185.1 secs

     total energy              =    -447.85465601 Ry
     Harris-Foulkes estimate   =    -447.95459936 Ry
     estimated scf accuracy    <      38.33082911 Ry

     iteration # 19     ecut=    30.00 Ry     beta= 0.30
     Davidson diagonalization with overlap
     ethr =  1.07E-03,  avg # of iterations =  1.0

     negative rho (up, down):  7.194E-03 0.000E+00

     total cpu time spent up to now is    38986.9 secs

     total energy              =    -447.82575177 Ry
     Harris-Foulkes estimate   =    -447.87459757 Ry
     estimated scf accuracy    <      14.77138051 Ry

     iteration # 20     ecut=    30.00 Ry     beta= 0.30
     Davidson diagonalization with overlap
     ethr =  1.07E-03,  avg # of iterations =  1.4

     negative rho (up, down):  6.831E-03 0.000E+00

     total cpu time spent up to now is    40785.7 secs

     total energy              =    -447.84249866 Ry
     Harris-Foulkes estimate   =    -447.84163235 Ry
     estimated scf accuracy    <       3.17109573 Ry

     iteration # 21     ecut=    30.00 Ry     beta= 0.30
     Davidson diagonalization with overlap
     ethr =  1.07E-03,  avg # of iterations =  1.0

     negative rho (up, down):  7.700E-03 0.000E+00

     total cpu time spent up to now is    42585.4 secs

     total energy              =    -447.83070059 Ry
     Harris-Foulkes estimate   =    -447.84287382 Ry
     estimated scf accuracy    <       3.34602869 Ry

     iteration # 22     ecut=    30.00 Ry     beta= 0.30
     Davidson diagonalization with overlap
     ethr =  1.07E-03,  avg # of iterations =  1.0

     negative rho (up, down):  4.538E-03 0.000E+00

     total cpu time spent up to now is    44390.1 secs

     total energy              =    -447.84092307 Ry
     Harris-Foulkes estimate   =    -447.83377059 Ry
     estimated scf accuracy    <       0.91397602 Ry

     iteration # 23     ecut=    30.00 Ry     beta= 0.30
     Davidson diagonalization with overlap
     ethr =  8.39E-04,  avg # of iterations =  1.1

     negative rho (up, down):  1.038E-02 0.000E+00

     total cpu time spent up to now is    46189.0 secs

     total energy              =    -447.82569000 Ry
     Harris-Foulkes estimate   =    -447.84377830 Ry
     estimated scf accuracy    <       1.44064068 Ry

     iteration # 24     ecut=    30.00 Ry     beta= 0.30
     Davidson diagonalization with overlap
     ethr =  8.39E-04,  avg # of iterations =  1.2

     negative rho (up, down):  1.049E-02 0.000E+00

     total cpu time spent up to now is    48016.7 secs

     total energy              =    -447.82633769 Ry
     Harris-Foulkes estimate   =    -447.84223082 Ry
     estimated scf accuracy    <       4.32394229 Ry

     iteration # 25     ecut=    30.00 Ry     beta= 0.30
     Davidson diagonalization with overlap
     ethr =  8.39E-04,  avg # of iterations =  1.1

     negative rho (up, down):  9.966E-03 0.000E+00

     total cpu time spent up to now is    49831.1 secs

     total energy              =    -447.83083659 Ry
     Harris-Foulkes estimate   =    -447.83506061 Ry
     estimated scf accuracy    <       0.79734723 Ry

     iteration # 26     ecut=    30.00 Ry     beta= 0.30
     Davidson diagonalization with overlap
     ethr =  7.32E-04,  avg # of iterations =  1.0

     negative rho (up, down):  7.784E-03 0.000E+00

     total cpu time spent up to now is    51604.3 secs

     total energy              =    -447.83107120 Ry
     Harris-Foulkes estimate   =    -447.83274345 Ry
     estimated scf accuracy    <       0.10711057 Ry

     iteration # 27     ecut=    30.00 Ry     beta= 0.30
     Davidson diagonalization with overlap
     c_bands:  1 eigenvalues not converged
     ethr =  9.83E-05,  avg # of iterations =  5.7

     negative rho (up, down):  6.385E-03 0.000E+00

     total cpu time spent up to now is    53680.7 secs

     total energy              =    -447.83269086 Ry
     Harris-Foulkes estimate   =    -447.83765402 Ry
     estimated scf accuracy    <       0.16418206 Ry

     iteration # 28     ecut=    30.00 Ry     beta= 0.30
     Davidson diagonalization with overlap
     ethr =  9.83E-05,  avg # of iterations =  1.8

     negative rho (up, down):  3.494E-03 0.000E+00

     total cpu time spent up to now is    55516.1 secs

     total energy              =    -447.83289393 Ry
     Harris-Foulkes estimate   =    -447.83575862 Ry
     estimated scf accuracy    <       0.13621776 Ry

     iteration # 29     ecut=    30.00 Ry     beta= 0.30
     Davidson diagonalization with overlap
     c_bands:  1 eigenvalues not converged
     ethr =  9.83E-05,  avg # of iterations =  3.0

     negative rho (up, down):  3.489E-03 0.000E+00

     total cpu time spent up to now is    57370.6 secs

     total energy              =    -447.82691044 Ry
     Harris-Foulkes estimate   =    -447.83807389 Ry
     estimated scf accuracy    <       1.94934206 Ry

     iteration # 30     ecut=    30.00 Ry     beta= 0.30
     Davidson diagonalization with overlap
     ethr =  9.83E-05,  avg # of iterations =  1.4

     negative rho (up, down):  3.340E-03 0.000E+00

     total cpu time spent up to now is    59193.6 secs

     total energy              =    -447.83136306 Ry
     Harris-Foulkes estimate   =    -447.83147177 Ry
     estimated scf accuracy    <       0.08271599 Ry

     iteration # 31     ecut=    30.00 Ry     beta= 0.30
     Davidson diagonalization with overlap
     ethr =  7.59E-05,  avg # of iterations =  1.2

     negative rho (up, down):  3.947E-03 0.000E+00

     total cpu time spent up to now is    60989.3 secs

     total energy              =    -447.83160581 Ry
     Harris-Foulkes estimate   =    -447.83205298 Ry
     estimated scf accuracy    <       0.08269239 Ry

     iteration # 32     ecut=    30.00 Ry     beta= 0.30
     Davidson diagonalization with overlap
     ethr =  7.59E-05,  avg # of iterations =  1.0

     negative rho (up, down):  1.073E-02 0.000E+00

     total cpu time spent up to now is    62797.5 secs

     total energy              =    -447.83059579 Ry
     Harris-Foulkes estimate   =    -447.83169740 Ry
     estimated scf accuracy    <       0.05488964 Ry

     iteration # 33     ecut=    30.00 Ry     beta= 0.30
     Davidson diagonalization with overlap
     c_bands:  2 eigenvalues not converged
     ethr =  5.04E-05,  avg # of iterations =  3.5

     negative rho (up, down):  6.533E-03 0.000E+00

     total cpu time spent up to now is    64682.1 secs

     total energy              =    -447.83239061 Ry
     Harris-Foulkes estimate   =    -447.83378902 Ry
     estimated scf accuracy    <       0.36498817 Ry

     iteration # 34     ecut=    30.00 Ry     beta= 0.30
     Davidson diagonalization with overlap
     ethr =  5.04E-05,  avg # of iterations =  1.4

     negative rho (up, down):  1.071E-02 0.000E+00

     total cpu time spent up to now is    66495.8 secs

     total energy              =    -447.83378222 Ry
     Harris-Foulkes estimate   =    -447.83293513 Ry
     estimated scf accuracy    <       0.08170948 Ry

     iteration # 35     ecut=    30.00 Ry     beta= 0.30
     Davidson diagonalization with overlap
     ethr =  5.04E-05,  avg # of iterations =  2.2

     negative rho (up, down):  1.104E-02 0.000E+00

     total cpu time spent up to now is    68384.9 secs

     total energy              =    -447.83750692 Ry
     Harris-Foulkes estimate   =    -447.83819389 Ry
     estimated scf accuracy    <       1.46086556 Ry

     iteration # 36     ecut=    30.00 Ry     beta= 0.30
     Davidson diagonalization with overlap
     ethr =  5.04E-05,  avg # of iterations =  1.0

     negative rho (up, down):  1.011E-02 0.000E+00

     total cpu time spent up to now is    70185.6 secs

     total energy              =    -447.83979927 Ry
     Harris-Foulkes estimate   =    -447.83754527 Ry
     estimated scf accuracy    <       1.26913526 Ry

     iteration # 37     ecut=    30.00 Ry     beta= 0.30
     Davidson diagonalization with overlap
     c_bands:  2 eigenvalues not converged
     ethr =  5.04E-05,  avg # of iterations =  1.4

     negative rho (up, down):  9.201E-03 0.000E+00

     total cpu time spent up to now is    71982.2 secs

     total energy              =    -447.84024439 Ry
     Harris-Foulkes estimate   =    -447.84019052 Ry
     estimated scf accuracy    <       1.98729997 Ry

     iteration # 38     ecut=    30.00 Ry     beta= 0.30
     Davidson diagonalization with overlap
     ethr =  5.04E-05,  avg # of iterations =  1.1

     negative rho (up, down):  1.073E-02 0.000E+00

     total cpu time spent up to now is    73790.5 secs

     total energy              =    -447.84204346 Ry
     Harris-Foulkes estimate   =    -447.84026391 Ry
     estimated scf accuracy    <       2.01999672 Ry

     iteration # 39     ecut=    30.00 Ry     beta= 0.30
     Davidson diagonalization with overlap
     ethr =  5.04E-05,  avg # of iterations =  1.0

     negative rho (up, down):  7.049E-03 0.000E+00

     total cpu time spent up to now is    75591.9 secs

     total energy              =    -447.84401346 Ry
     Harris-Foulkes estimate   =    -447.84218747 Ry
     estimated scf accuracy    <       2.60383899 Ry

     iteration # 40     ecut=    30.00 Ry     beta= 0.30
     Davidson diagonalization with overlap
     ethr =  5.04E-05,  avg # of iterations =  1.0

     negative rho (up, down):  3.454E-03 0.000E+00

     total cpu time spent up to now is    77384.3 secs

     total energy              =    -447.83590214 Ry
     Harris-Foulkes estimate   =    -447.84417425 Ry
     estimated scf accuracy    <       3.10191531 Ry

     iteration # 41     ecut=    30.00 Ry     beta= 0.30
     Davidson diagonalization with overlap
     ethr =  5.04E-05,  avg # of iterations =  1.0

     negative rho (up, down):  8.935E-03 0.000E+00

     total cpu time spent up to now is    79185.3 secs

     total energy              =    -447.84043640 Ry
     Harris-Foulkes estimate   =    -447.83737113 Ry
     estimated scf accuracy    <       1.21437310 Ry

     iteration # 42     ecut=    30.00 Ry     beta= 0.30
     Davidson diagonalization with overlap
     ethr =  5.04E-05,  avg # of iterations =  2.0

     negative rho (up, down):  3.734E-03 0.000E+00

     total cpu time spent up to now is    81005.8 secs

     total energy              =    -447.83501162 Ry
     Harris-Foulkes estimate   =    -447.84156250 Ry
     estimated scf accuracy    <       2.44507261 Ry

     iteration # 43     ecut=    30.00 Ry     beta= 0.30
     Davidson diagonalization with overlap
     ethr =  5.04E-05,  avg # of iterations =  1.0

     negative rho (up, down):  2.273E-03 0.000E+00

     total cpu time spent up to now is    82848.3 secs

     total energy              =    -447.82910153 Ry
     Harris-Foulkes estimate   =    -447.83639515 Ry
     estimated scf accuracy    <       0.98152848 Ry

     iteration # 44     ecut=    30.00 Ry     beta= 0.30
     Davidson diagonalization with overlap
     ethr =  5.04E-05,  avg # of iterations =  2.2

     negative rho (up, down):  2.690E-03 0.000E+00

     total cpu time spent up to now is    84747.0 secs

     total energy              =    -447.83227623 Ry
     Harris-Foulkes estimate   =    -447.83429991 Ry
     estimated scf accuracy    <       0.16268215 Ry

     iteration # 45     ecut=    30.00 Ry     beta= 0.30
     Davidson diagonalization with overlap
     ethr =  5.04E-05,  avg # of iterations =  1.5

     negative rho (up, down):  8.612E-03 0.000E+00

     total cpu time spent up to now is    86612.8 secs

     total energy              =    -447.83257809 Ry
     Harris-Foulkes estimate   =    -447.83421265 Ry
     estimated scf accuracy    <       0.17506001 Ry

     iteration # 46     ecut=    30.00 Ry     beta= 0.30
     Davidson diagonalization with overlap
     ethr =  5.04E-05,  avg # of iterations =  1.2

     negative rho (up, down):  8.772E-03 0.000E+00

     total cpu time spent up to now is    88440.4 secs

     total energy              =    -447.83327586 Ry
     Harris-Foulkes estimate   =    -447.83342530 Ry
     estimated scf accuracy    <       0.00881342 Ry

     iteration # 47     ecut=    30.00 Ry     beta= 0.30
     Davidson diagonalization with overlap
     c_bands:  5 eigenvalues not converged
     c_bands:  2 eigenvalues not converged
     ethr =  8.09E-06,  avg # of iterations =  7.2

     negative rho (up, down):  8.051E-03 0.000E+00

     total cpu time spent up to now is    90504.3 secs

     total energy              =    -447.83386768 Ry
     Harris-Foulkes estimate   =    -447.83384694 Ry
     estimated scf accuracy    <       0.00511918 Ry

     iteration # 48     ecut=    30.00 Ry     beta= 0.30
     Davidson diagonalization with overlap
     c_bands:  1 eigenvalues not converged
     ethr =  4.70E-06,  avg # of iterations =  3.0

     negative rho (up, down):  1.112E-02 0.000E+00

     total cpu time spent up to now is    92393.6 secs

     total energy              =    -447.83377084 Ry
     Harris-Foulkes estimate   =    -447.83389487 Ry
     estimated scf accuracy    <       0.01222826 Ry

     iteration # 49     ecut=    30.00 Ry     beta= 0.30
     Davidson diagonalization with overlap
     ethr =  4.70E-06,  avg # of iterations =  1.5

     negative rho (up, down):  1.192E-02 0.000E+00

     total cpu time spent up to now is    94199.5 secs

     total energy              =    -447.83389411 Ry
     Harris-Foulkes estimate   =    -447.83388034 Ry
     estimated scf accuracy    <       0.00790342 Ry

     iteration # 50     ecut=    30.00 Ry     beta= 0.30
     Davidson diagonalization with overlap
     ethr =  4.70E-06,  avg # of iterations =  1.0

     negative rho (up, down):  9.404E-03 0.000E+00

     total cpu time spent up to now is    95995.0 secs

     total energy              =    -447.83362475 Ry
     Harris-Foulkes estimate   =    -447.83389808 Ry
     estimated scf accuracy    <       0.00624160 Ry

     iteration # 51     ecut=    30.00 Ry     beta= 0.30
     Davidson diagonalization with overlap
     ethr =  4.70E-06,  avg # of iterations =  2.6

     negative rho (up, down):  9.072E-03 0.000E+00

     total cpu time spent up to now is    97851.8 secs

     total energy              =    -447.83363279 Ry
     Harris-Foulkes estimate   =    -447.83385971 Ry
     estimated scf accuracy    <       0.03201163 Ry

     iteration # 52     ecut=    30.00 Ry     beta= 0.30
     Davidson diagonalization with overlap
     ethr =  4.70E-06,  avg # of iterations =  1.0

     negative rho (up, down):  1.004E-02 0.000E+00

     total cpu time spent up to now is    99619.4 secs

     total energy              =    -447.83335255 Ry
     Harris-Foulkes estimate   =    -447.83367316 Ry
     estimated scf accuracy    <       0.00960371 Ry

     iteration # 53     ecut=    30.00 Ry     beta= 0.30
     Davidson diagonalization with overlap
     ethr =  4.70E-06,  avg # of iterations =  1.0

     negative rho (up, down):  1.248E-02 0.000E+00

     total cpu time spent up to now is   101408.4 secs

     total energy              =    -447.83338931 Ry
     Harris-Foulkes estimate   =    -447.83341647 Ry
     estimated scf accuracy    <       0.00663133 Ry

     iteration # 54     ecut=    30.00 Ry     beta= 0.30
     Davidson diagonalization with overlap
     ethr =  4.70E-06,  avg # of iterations =  1.0

     negative rho (up, down):  1.139E-02 0.000E+00

     total cpu time spent up to now is   103194.3 secs

     total energy              =    -447.83322445 Ry
     Harris-Foulkes estimate   =    -447.83340914 Ry
     estimated scf accuracy    <       0.00150096 Ry

     iteration # 55     ecut=    30.00 Ry     beta= 0.30
     Davidson diagonalization with overlap
     ethr =  1.38E-06,  avg # of iterations =  3.6

     negative rho (up, down):  7.499E-03 0.000E+00

     total cpu time spent up to now is   105048.2 secs

     total energy              =    -447.83317884 Ry
     Harris-Foulkes estimate   =    -447.83333455 Ry
     estimated scf accuracy    <       0.00205587 Ry

     iteration # 56     ecut=    30.00 Ry     beta= 0.30
     Davidson diagonalization with overlap
     ethr =  1.38E-06,  avg # of iterations =  1.0

     negative rho (up, down):  8.691E-03 0.000E+00

     total cpu time spent up to now is   106833.6 secs

     total energy              =    -447.83312915 Ry
     Harris-Foulkes estimate   =    -447.83320049 Ry
     estimated scf accuracy    <       0.00304922 Ry

     iteration # 57     ecut=    30.00 Ry     beta= 0.30
     Davidson diagonalization with overlap
     ethr =  1.38E-06,  avg # of iterations =  1.5

     negative rho (up, down):  1.082E-02 0.000E+00

     total cpu time spent up to now is   108598.8 secs

     total energy              =    -447.83315601 Ry
     Harris-Foulkes estimate   =    -447.83314542 Ry
     estimated scf accuracy    <       0.00334937 Ry

     iteration # 58     ecut=    30.00 Ry     beta= 0.30
     Davidson diagonalization with overlap
     ethr =  1.38E-06,  avg # of iterations =  1.0

     negative rho (up, down):  1.091E-02 0.000E+00

     total cpu time spent up to now is   110382.3 secs

     total energy              =    -447.83314301 Ry
     Harris-Foulkes estimate   =    -447.83315798 Ry
     estimated scf accuracy    <       0.00311644 Ry

     iteration # 59     ecut=    30.00 Ry     beta= 0.30
     Davidson diagonalization with overlap
     ethr =  1.38E-06,  avg # of iterations =  1.0

     negative rho (up, down):  8.137E-03 0.000E+00

     total cpu time spent up to now is   112162.6 secs

     total energy              =    -447.83300863 Ry
     Harris-Foulkes estimate   =    -447.83314565 Ry
     estimated scf accuracy    <       0.00194383 Ry

     iteration # 60     ecut=    30.00 Ry     beta= 0.30
     Davidson diagonalization with overlap
     ethr =  1.38E-06,  avg # of iterations =  1.0

     negative rho (up, down):  7.180E-03 0.000E+00

     total cpu time spent up to now is   113927.4 secs

     total energy              =    -447.83297175 Ry
     Harris-Foulkes estimate   =    -447.83302275 Ry
     estimated scf accuracy    <       0.00060219 Ry

     iteration # 61     ecut=    30.00 Ry     beta= 0.30
     Davidson diagonalization with overlap
     ethr =  5.52E-07,  avg # of iterations =  2.4

     negative rho (up, down):  7.927E-03 0.000E+00

     total cpu time spent up to now is   115750.8 secs

     total energy              =    -447.83301056 Ry
     Harris-Foulkes estimate   =    -447.83299068 Ry
     estimated scf accuracy    <       0.00080256 Ry

     iteration # 62     ecut=    30.00 Ry     beta= 0.30
     Davidson diagonalization with overlap
     ethr =  5.52E-07,  avg # of iterations =  1.3

     negative rho (up, down):  6.650E-03 0.000E+00

     total cpu time spent up to now is   117512.1 secs

     total energy              =    -447.83297848 Ry
     Harris-Foulkes estimate   =    -447.83301778 Ry
     estimated scf accuracy    <       0.00198891 Ry

     iteration # 63     ecut=    30.00 Ry     beta= 0.30
     Davidson diagonalization with overlap
     ethr =  5.52E-07,  avg # of iterations =  1.1

     negative rho (up, down):  3.376E-03 0.000E+00

     total cpu time spent up to now is   119299.9 secs

     total energy              =    -447.83281798 Ry
     Harris-Foulkes estimate   =    -447.83297989 Ry
     estimated scf accuracy    <       0.00262659 Ry

     iteration # 64     ecut=    30.00 Ry     beta= 0.30
     Davidson diagonalization with overlap
     ethr =  5.52E-07,  avg # of iterations =  1.2

     negative rho (up, down):  4.481E-03 0.000E+00

     total cpu time spent up to now is   121082.6 secs

     total energy              =    -447.83277747 Ry
     Harris-Foulkes estimate   =    -447.83282398 Ry
     estimated scf accuracy    <       0.00141077 Ry

     iteration # 65     ecut=    30.00 Ry     beta= 0.30
     Davidson diagonalization with overlap
     ethr =  5.52E-07,  avg # of iterations =  1.0

     negative rho (up, down):  4.499E-03 0.000E+00

     total cpu time spent up to now is   122869.7 secs

     total energy              =    -447.83269622 Ry
     Harris-Foulkes estimate   =    -447.83277912 Ry
     estimated scf accuracy    <       0.00096713 Ry

     iteration # 66     ecut=    30.00 Ry     beta= 0.30
     Davidson diagonalization with overlap
     ethr =  5.52E-07,  avg # of iterations =  2.6

     negative rho (up, down):  4.540E-03 0.000E+00

     total cpu time spent up to now is   124715.4 secs

     total energy              =    -447.83271851 Ry
     Harris-Foulkes estimate   =    -447.83272814 Ry
     estimated scf accuracy    <       0.00036497 Ry

     iteration # 67     ecut=    30.00 Ry     beta= 0.30
     Davidson diagonalization with overlap
     ethr =  3.35E-07,  avg # of iterations =  1.3

     negative rho (up, down):  4.459E-03 0.000E+00

     total cpu time spent up to now is   126509.2 secs

     total energy              =    -447.83269722 Ry
     Harris-Foulkes estimate   =    -447.83272410 Ry
     estimated scf accuracy    <       0.00019425 Ry

     iteration # 68     ecut=    30.00 Ry     beta= 0.30
     Davidson diagonalization with overlap
     ethr =  1.78E-07,  avg # of iterations =  3.6

     negative rho (up, down):  5.465E-03 0.000E+00

     total cpu time spent up to now is   128494.6 secs

     total energy              =    -447.83267604 Ry
     Harris-Foulkes estimate   =    -447.83272032 Ry
     estimated scf accuracy    <       0.00128089 Ry

     iteration # 69     ecut=    30.00 Ry     beta= 0.30
     Davidson diagonalization with overlap
     ethr =  1.78E-07,  avg # of iterations =  4.7

     negative rho (up, down):  4.967E-03 0.000E+00

     total cpu time spent up to now is   130563.9 secs

     total energy              =    -447.83268660 Ry
     Harris-Foulkes estimate   =    -447.83275350 Ry
     estimated scf accuracy    <       0.00417117 Ry

     iteration # 70     ecut=    30.00 Ry     beta= 0.30
     Davidson diagonalization with overlap
     ethr =  1.78E-07,  avg # of iterations =  3.4

     negative rho (up, down):  5.429E-03 0.000E+00

     total cpu time spent up to now is   132485.2 secs

     total energy              =    -447.83271761 Ry
     Harris-Foulkes estimate   =    -447.83271159 Ry
     estimated scf accuracy    <       0.00012940 Ry

     iteration # 71     ecut=    30.00 Ry     beta= 0.30
     Davidson diagonalization with overlap
     ethr =  1.19E-07,  avg # of iterations =  2.5

     negative rho (up, down):  4.965E-03 0.000E+00

     total cpu time spent up to now is   134332.3 secs

     total energy              =    -447.83272524 Ry
     Harris-Foulkes estimate   =    -447.83272396 Ry
     estimated scf accuracy    <       0.00129616 Ry

     iteration # 72     ecut=    30.00 Ry     beta= 0.30
     Davidson diagonalization with overlap
     ethr =  1.19E-07,  avg # of iterations =  1.0

     negative rho (up, down):  5.323E-03 0.000E+00

     total cpu time spent up to now is   136124.8 secs

     total energy              =    -447.83271182 Ry
     Harris-Foulkes estimate   =    -447.83272598 Ry
     estimated scf accuracy    <       0.00083309 Ry

     iteration # 73     ecut=    30.00 Ry     beta= 0.30
     Davidson diagonalization with overlap
     ethr =  1.19E-07,  avg # of iterations =  1.0

     negative rho (up, down):  4.209E-03 0.000E+00

     total cpu time spent up to now is   137890.9 secs

     total energy              =    -447.83271101 Ry
     Harris-Foulkes estimate   =    -447.83271325 Ry
     estimated scf accuracy    <       0.00035564 Ry

     iteration # 74     ecut=    30.00 Ry     beta= 0.30
     Davidson diagonalization with overlap
     ethr =  1.19E-07,  avg # of iterations =  1.0

     negative rho (up, down):  5.360E-03 0.000E+00

     total cpu time spent up to now is   139682.2 secs

     total energy              =    -447.83271165 Ry
     Harris-Foulkes estimate   =    -447.83271160 Ry
     estimated scf accuracy    <       0.00024955 Ry

     iteration # 75     ecut=    30.00 Ry     beta= 0.30
     Davidson diagonalization with overlap
     ethr =  1.19E-07,  avg # of iterations =  1.0

     negative rho (up, down):  5.332E-03 0.000E+00

     total cpu time spent up to now is   141477.8 secs

     total energy              =    -447.83271294 Ry
     Harris-Foulkes estimate   =    -447.83271212 Ry
     estimated scf accuracy    <       0.00032359 Ry

     iteration # 76     ecut=    30.00 Ry     beta= 0.30
     Davidson diagonalization with overlap
     ethr =  1.19E-07,  avg # of iterations =  1.0

     negative rho (up, down):  4.612E-03 0.000E+00

     total cpu time spent up to now is   143253.5 secs

     total energy              =    -447.83270272 Ry
     Harris-Foulkes estimate   =    -447.83271306 Ry
     estimated scf accuracy    <       0.00032021 Ry

     iteration # 77     ecut=    30.00 Ry     beta= 0.30
     Davidson diagonalization with overlap
     ethr =  1.19E-07,  avg # of iterations =  1.0

     negative rho (up, down):  4.508E-03 0.000E+00

     total cpu time spent up to now is   145050.3 secs

     total energy              =    -447.83269802 Ry
     Harris-Foulkes estimate   =    -447.83270321 Ry
     estimated scf accuracy    <       0.00019059 Ry

     iteration # 78     ecut=    30.00 Ry     beta= 0.30
     Davidson diagonalization with overlap
     ethr =  1.19E-07,  avg # of iterations =  1.8

     negative rho (up, down):  3.958E-03 0.000E+00

     total cpu time spent up to now is   146857.7 secs

     total energy              =    -447.83272071 Ry
     Harris-Foulkes estimate   =    -447.83270030 Ry
     estimated scf accuracy    <       0.00008762 Ry

     iteration # 79     ecut=    30.00 Ry     beta= 0.30
     Davidson diagonalization with overlap
     ethr =  8.04E-08,  avg # of iterations =  3.2

     negative rho (up, down):  3.549E-03 0.000E+00

     total cpu time spent up to now is   148756.7 secs

     total energy              =    -447.83270835 Ry
     Harris-Foulkes estimate   =    -447.83272967 Ry
     estimated scf accuracy    <       0.00031149 Ry

     iteration # 80     ecut=    30.00 Ry     beta= 0.30
     Davidson diagonalization with overlap
     ethr =  8.04E-08,  avg # of iterations =  2.7

     negative rho (up, down):  3.156E-03 0.000E+00

     total cpu time spent up to now is   150654.0 secs

     total energy              =    -447.83271312 Ry
     Harris-Foulkes estimate   =    -447.83271411 Ry
     estimated scf accuracy    <       0.00005322 Ry

     iteration # 81     ecut=    30.00 Ry     beta= 0.30
     Davidson diagonalization with overlap
     ethr =  4.88E-08,  avg # of iterations =  1.7

     negative rho (up, down):  2.495E-03 0.000E+00

     total cpu time spent up to now is   152485.1 secs

     total energy              =    -447.83272980 Ry
     Harris-Foulkes estimate   =    -447.83271429 Ry
     estimated scf accuracy    <       0.00006480 Ry

     iteration # 82     ecut=    30.00 Ry     beta= 0.30
     Davidson diagonalization with overlap
     ethr =  4.88E-08,  avg # of iterations =  2.0

     negative rho (up, down):  1.974E-03 0.000E+00

     total cpu time spent up to now is   154311.9 secs

     total energy              =    -447.83272731 Ry
     Harris-Foulkes estimate   =    -447.83273140 Ry
     estimated scf accuracy    <       0.00004644 Ry

     iteration # 83     ecut=    30.00 Ry     beta= 0.30
     Davidson diagonalization with overlap
     ethr =  4.26E-08,  avg # of iterations =  1.0

     negative rho (up, down):  4.117E-05 0.000E+00

     total cpu time spent up to now is   156080.5 secs

     End of self-consistent calculation

          k = 0.0000 0.0000 0.0000 ( 44015 PWs)   bands (ev):

    -9.3302  -9.2948  -9.2596  -9.2159  -9.1748  -9.1343  -9.0907  -9.0555
    -9.0354  -4.4839  -3.5683  -3.5389  -3.5357  -3.5357  -3.5324  -3.5292
    -3.5292  -3.5235  -3.5235  -3.5214  -3.5120  -3.5120  -3.5064  -3.4962
    -3.4930  -3.4930  -3.4788  -3.4771  -3.4771  -3.4626  -3.4610  -3.4610
    -3.4514  -3.4429  -3.4429  -3.4390  -3.4336  -3.4336  -3.3447  -3.1191
    -3.0756  -3.0147  -3.0147  -3.0070  -2.9951  -2.9951  -2.9752  -2.9695
    -2.9695  -2.9459  -2.9397  -2.9397  -2.9293  -2.9102  -2.9102  -2.8952
    -2.8870  -2.8870  -2.8746  -2.8704  -2.8704  -2.8685  -2.8590  -2.8590
    -2.8549  -2.8540

          k = 0.0000 0.0577 0.0000 ( 44017 PWs)   bands (ev):

    -9.3150  -9.2795  -9.2443  -9.2007  -9.1596  -9.1191  -9.0755  -9.0402
    -9.0201  -4.5224  -3.9481  -3.9211  -3.8909  -3.8746  -3.8331  -3.7943
    -3.7651  -3.7396  -3.7236  -3.6921  -3.6897  -3.6754  -3.6662  -3.6545
    -3.6408  -3.6259  -3.6251  -3.5932  -3.5908  -3.5642  -3.5630  -3.5440
    -3.5372  -3.5256  -3.5147  -3.5132  -3.5050  -3.5012  -3.3339  -3.0609
    -3.0233  -2.8983  -2.8919  -2.8800  -2.8614  -2.8551  -2.8312  -2.8231
    -2.8204  -2.7872  -2.7836  -2.7584  -2.7544  -2.7262  -2.7244  -2.7043
    -2.6976  -2.6880  -2.6824  -2.6777  -2.6586  -2.6275  -2.5899  -2.5614
    -2.5288  -2.5013

          k = 0.0000 0.1155 0.0000 ( 44021 PWs)   bands (ev):

    -9.2694  -9.2338  -9.1986  -9.1549  -9.1139  -9.0734  -9.0298  -8.9946
    -8.9745  -4.7033  -4.4664  -4.4344  -4.3905  -4.3670  -4.3296  -4.2801
    -4.2432  -4.2267  -4.1968  -3.9077  -3.9037  -3.8893  -3.8742  -3.8648
    -3.8332  -3.8309  -3.8165  -3.7912  -3.7817  -3.7565  -3.7369  -3.7239
    -3.7036  -3.6961  -3.6941  -3.6812  -3.6783  -3.4885  -3.2902  -3.0167
    -2.8831  -2.6778  -2.6253  -2.6186  -2.6064  -2.5865  -2.5803  -2.5480
    -2.5454  -2.5303  -2.5055  -2.4893  -2.4687  -2.4553  -2.4360  -2.4349
    -2.4087  -2.4048  -2.3902  -2.3878  -2.1494  -2.0840  -2.0684  -2.0388
    -2.0014  -1.9659

          k = 0.0000 0.1732 0.0000 ( 44034 PWs)   bands (ev):

    -9.1935  -9.1576  -9.1224  -9.0788  -9.0378  -8.9973  -8.9537  -8.9184
    -8.8984  -5.0865  -4.9725  -4.9390  -4.8956  -4.8627  -4.8254  -4.7796
    -4.7449  -4.7264  -4.4051  -4.1134  -4.1086  -4.0943  -4.0773  -4.0687
    -4.0351  -4.0332  -4.0097  -3.9918  -3.9734  -3.9550  -3.9274  -3.9203
    -3.8942  -3.8886  -3.8757  -3.8715  -3.7781  -3.4158  -3.2168  -2.9431
    -2.7797  -2.5178  -2.3012  -2.2870  -2.2782  -2.2679  -2.2463  -2.2415
    -2.2080  -2.2060  -2.1773  -2.1651  -2.1380  -2.1278  -2.0962  -2.0933
    -2.0698  -2.0626  -2.0524  -2.0455  -2.0431  -1.7207  -1.5325  -1.4732
    -1.4394  -1.4067

          k = 0.0000 0.2309 0.0000 ( 43964 PWs)   bands (ev):

    -9.0873  -9.0509  -9.0158  -8.9722  -8.9313  -8.8908  -8.8472  -8.8120
    -8.7919  -5.5327  -5.4555  -5.4215  -5.3782  -5.3424  -5.3043  -5.2598
    -5.2255  -5.2068  -4.5421  -4.2965  -4.2913  -4.2771  -4.2591  -4.2509
    -4.2166  -4.2147  -4.1881  -4.1725  -4.1506  -4.1347  -4.1049  -4.0991
    -4.0722  -4.0668  -4.0532  -4.0493  -3.7772  -3.3130  -3.1142  -2.8402
    -2.6719  -2.3931  -2.0368  -1.9140  -1.9101  -1.8999  -1.8910  -1.8692
    -1.8648  -1.8315  -1.8293  -1.8016  -1.7883  -1.7608  -1.7512  -1.7193
    -1.7169  -1.6936  -1.6861  -1.6734  -1.6690  -1.6190  -1.4045  -1.0176
    -0.7782  -0.7457

          k = 0.0000 0.2887 0.0000 ( 43914 PWs)   bands (ev):

    -8.9509  -8.9140  -8.8789  -8.8353  -8.7944  -8.7541  -8.7104  -8.6752
    -8.6552  -5.9741  -5.9125  -5.8783  -5.8351  -5.7977  -5.7591  -5.7150
    -5.6807  -5.6617  -4.6645  -4.4536  -4.4481  -4.4340  -4.4154  -4.4075
    -4.3728  -4.3710  -4.3428  -4.3284  -4.3047  -4.2901  -4.2593  -4.2540
    -4.2266  -4.2213  -4.2073  -4.2034  -3.7239  -3.1807  -2.9824  -2.7078
    -2.5441  -2.2606  -1.8647  -1.6278  -1.5024  -1.4963  -1.4910  -1.4834
    -1.4636  -1.4574  -1.4243  -1.4220  -1.4014  -1.3813  -1.3577  -1.3446
    -1.3133  -1.3108  -1.2930  -1.2806  -1.2724  -1.2637  -1.2611  -0.9294
    -0.2600  -0.1433

          k = 0.0000 0.3464 0.0000 ( 43922 PWs)   bands (ev):

    -8.7846  -8.7470  -8.7118  -8.6682  -8.6275  -8.5872  -8.5435  -8.5083
    -8.4883  -6.3954  -6.3425  -6.3080  -6.2647  -6.2266  -6.1875  -6.1437
    -6.1092  -6.0899  -4.7718  -4.5832  -4.5776  -4.5635  -4.5446  -4.5368
    -4.5018  -4.5000  -4.4709  -4.4571  -4.4323  -4.4184  -4.3870  -4.3820
    -4.3544  -4.3491  -4.3348  -4.3310  -3.6388  -3.0189  -2.8217  -2.5463
    -2.3949  -2.1093  -1.7095  -1.4079  -1.3320  -1.0998  -1.0663  -1.0611
    -1.0478  -1.0301  -1.0222  -0.9916  -0.9875  -0.9822  -0.9474  -0.9330
    -0.9113  -0.8868  -0.8783  -0.8764  -0.8487  -0.8465  -0.8323  -0.8281
    -0.6670  -0.4808

          k = 0.0000 0.4041 0.0000 ( 43890 PWs)   bands (ev):

    -8.5885  -8.5498  -8.5147  -8.4710  -8.4305  -8.3903  -8.3466  -8.3114
    -8.2914  -6.7918  -6.7445  -6.7099  -6.6666  -6.6277  -6.5883  -6.5446
    -6.5101  -6.4907  -4.8589  -4.6844  -4.6788  -4.6647  -4.6456  -4.6379
    -4.6027  -4.6010  -4.5713  -4.5578  -4.5324  -4.5189  -4.4870  -4.4821
    -4.4543  -4.4490  -4.4346  -4.4309  -3.5382  -2.8280  -2.6325  -2.3555
    -2.2302  -1.9427  -1.5638  -1.3596  -1.1454  -1.0634  -0.9227  -0.8732
    -0.6805  -0.6061  -0.6041  -0.6000  -0.5876  -0.5686  -0.5625  -0.5305
    -0.5282  -0.5087  -0.4888  -0.4677  -0.4538  -0.4245  -0.4217  -0.4112
    -0.3927  -0.3872

          k = 0.0000 0.4619 0.0000 ( 43856 PWs)   bands (ev):

    -8.3630  -8.3227  -8.2876  -8.2439  -8.2036  -8.1635  -8.1197  -8.0845
    -8.0646  -7.1611  -7.1182  -7.0834  -7.0401  -7.0007  -6.9610  -6.9175
    -6.8829  -6.8632  -4.9228  -4.7570  -4.7513  -4.7373  -4.7179  -4.7102
    -4.6750  -4.6732  -4.6432  -4.6300  -4.6041  -4.5908  -4.5588  -4.5540
    -4.5261  -4.5208  -4.5062  -4.5024  -3.4392  -2.6082  -2.4159  -2.1356
    -2.0741  -1.7796  -1.5084  -1.4200  -1.2580  -1.2083  -0.9669  -0.9301
    -0.8179  -0.7007  -0.5451  -0.2420  -0.1256  -0.1210  -0.1075  -0.0963
    -0.0830  -0.0828  -0.0515  -0.0496  -0.0240  -0.0113   0.0124   0.0221
     0.0505   0.0526

          k = 0.0000 0.5196 0.0000 ( 43904 PWs)   bands (ev):

    -8.1095  -8.0659  -8.0309  -7.9871  -7.9472  -7.9074  -7.8633  -7.8281
    -7.8082  -7.5009  -7.4630  -7.4281  -7.3849  -7.3449  -7.3050  -7.2617
    -7.2269  -7.2073  -4.9617  -4.8007  -4.7949  -4.7809  -4.7615  -4.7539
    -4.7185  -4.7167  -4.6864  -4.6733  -4.6472  -4.6341  -4.6019  -4.5972
    -4.5692  -4.5640  -4.5494  -4.5457  -3.3635  -2.3606  -2.1784  -1.9863
    -1.8864  -1.7676  -1.6330  -1.5570  -1.3729  -1.3016  -1.1011  -0.9988
    -0.8166  -0.6865  -0.4840  -0.4439  -0.1196  -0.0887   0.1233   0.3583
     0.3622   0.3755   0.3896   0.3985   0.4268   0.4292   0.4324   0.4642
     0.4727   0.4935

          k = 0.0000-0.5774 0.0000 ( 43922 PWs)   bands (ev):

    -7.8710  -7.7887  -7.7806  -7.7682  -7.7454  -7.7388  -7.7015  -7.6997
    -7.6619  -7.6572  -7.6233  -7.6147  -7.5777  -7.5752  -7.5428  -7.5414
    -7.5226  -7.5220  -4.9748  -4.8152  -4.8094  -4.7954  -4.7760  -4.7684
    -4.7330  -4.7312  -4.7008  -4.6878  -4.6617  -4.6486  -4.6164  -4.6117
    -4.5836  -4.5784  -4.5639  -4.5601  -3.3345  -2.1111  -2.0774  -2.0022
    -1.8838  -1.8325  -1.6091  -1.6075  -1.4734  -1.3307  -1.1747  -1.0251
    -0.7683  -0.7073  -0.4240  -0.4069  -0.2552  -0.1870  -0.0279   0.7094
     0.7108   0.7204   0.7231   0.7290   0.7372   0.7453   0.7541   0.7663
     0.7774   0.7840

          k = 0.0500 0.0866 0.0000 ( 44009 PWs)   bands (ev):

    -9.2846  -9.2490  -9.2138  -9.1702  -9.1291  -9.0886  -9.0451  -9.0098
    -8.9897  -4.6211  -4.2020  -4.1956  -4.1832  -4.1641  -4.1560  -4.1220
    -4.1202  -4.0972  -4.0817  -4.0614  -4.0430  -4.0130  -4.0074  -3.9787
    -3.9767  -3.9609  -3.9606  -3.9042  -3.5145  -3.4935  -3.4868  -3.4775
    -3.4671  -3.4517  -3.4352  -3.4191  -3.4032  -3.3946  -3.3029  -3.0316
    -3.0179  -2.9624  -2.9302  -2.8984  -2.8833  -2.8515  -2.8288  -2.8257
    -2.8113  -2.7891  -2.5717  -2.3854  -2.3740  -2.3639  -2.3551  -2.3320
    -2.3281  -2.2937  -2.2924  -2.2601  -2.2532  -2.2223  -2.2152  -2.1813
    -2.1800  -2.1530

          k = 0.0500 0.1443 0.0000 ( 44024 PWs)   bands (ev):

    -9.2238  -9.1880  -9.1529  -9.1092  -9.0682  -9.0277  -8.9841  -8.9489
    -8.9288  -4.8855  -4.7114  -4.6786  -4.6346  -4.6085  -4.5720  -4.5236
    -4.4862  -4.4837  -4.4660  -4.4217  -4.3890  -4.3466  -4.3151  -4.2790
    -4.2338  -4.1998  -4.1820  -4.0084  -3.6039  -3.5826  -3.5618  -3.5397
    -3.5063  -3.4780  -3.4555  -3.4409  -3.4289  -3.4183  -3.2459  -2.9726
    -2.8904  -2.8042  -2.7738  -2.7458  -2.7346  -2.6977  -2.6695  -2.6383
    -2.6141  -2.5980  -2.4798  -2.1260  -2.0412  -2.0260  -1.9965  -1.9587
    -1.9248  -1.8867  -1.8462  -1.8186  -1.8014  -1.7804  -1.7498  -1.7488
    -1.7165  -1.6779

          k = 0.0500 0.2021 0.0000 ( 44004 PWs)   bands (ev):

    -9.1328  -9.0966  -9.0615  -9.0179  -8.9769  -8.9364  -8.8928  -8.8576
    -8.8375  -5.3014  -5.2061  -5.1724  -5.1290  -5.0948  -5.0572  -5.0118
    -4.9772  -4.9587  -4.7156  -4.6228  -4.5897  -4.5469  -4.5140  -4.4769
    -4.4319  -4.3980  -4.3799  -4.0551  -3.7738  -3.7450  -3.7037  -3.6968
    -3.6561  -3.6138  -3.5883  -3.5676  -3.5517  -3.3567  -3.1582  -2.8843
    -2.7330  -2.5279  -2.4880  -2.4561  -2.4173  -2.4030  -2.3642  -2.3320
    -2.3060  -2.2776  -2.2604  -2.0117  -1.7202  -1.6649  -1.6635  -1.6320
    -1.5926  -1.5633  -1.5236  -1.4810  -1.4584  -1.4429  -1.4314  -1.1991
    -1.1013  -1.0685

          k = 0.0500 0.2598 0.0000 ( 43975 PWs)   bands (ev):

    -9.0115  -8.9749  -8.9398  -8.8961  -8.8553  -8.8148  -8.7712  -8.7360
    -8.7159  -5.7457  -5.6763  -5.6422  -5.5989  -5.5623  -5.5240  -5.4797
    -5.4454  -5.4265  -4.8840  -4.7963  -4.7628  -4.7200  -4.6859  -4.6484
    -4.6037  -4.5699  -4.5514  -4.1157  -3.9344  -3.9032  -3.8607  -3.8359
    -3.8009  -3.7539  -3.7187  -3.7025  -3.6640  -3.2394  -3.0410  -2.7667
    -2.6049  -2.3321  -2.1213  -2.1037  -2.0734  -2.0355  -2.0020  -1.9650
    -1.9246  -1.8980  -1.8856  -1.8741  -1.5481  -1.4116  -1.3063  -1.2704
    -1.2380  -1.1981  -1.1729  -1.1321  -1.0880  -1.0629  -1.0448  -0.8857
    -0.4307  -0.3981

          k = 0.0500 0.3175 0.0000 ( 43954 PWs)   bands (ev):

    -8.8602  -8.8229  -8.7878  -8.7442  -8.7034  -8.6630  -8.6194  -8.5842
    -8.5641  -6.1771  -6.1199  -6.0855  -6.0423  -6.0046  -5.9657  -5.9217
    -5.8873  -5.8681  -5.0227  -4.9417  -4.9080  -4.8650  -4.8302  -4.7923
    -4.7479  -4.7139  -4.6954  -4.2022  -4.0728  -4.0406  -3.9981  -3.9679
    -3.9321  -3.8868  -3.8529  -3.8354  -3.6374  -3.0924  -2.8947  -2.6197
    -2.4637  -2.1809  -1.8059  -1.6986  -1.6844  -1.6558  -1.6183  -1.5865
    -1.5482  -1.5073  -1.4807  -1.4626  -1.4036  -1.2490  -1.1210  -0.8498
    -0.8197  -0.7900  -0.7752  -0.7274  -0.6894  -0.6671  -0.6372  -0.6203
    -0.4528  -0.2743

          k = 0.0500 0.3753 0.0000 ( 43872 PWs)   bands (ev):

    -8.6789  -8.6407  -8.6056  -8.5620  -8.5214  -8.4811  -8.4374  -8.4022
    -8.3822  -6.5860  -6.5359  -6.5014  -6.4581  -6.4195  -6.3803  -6.3365
    -6.3020  -6.2827  -5.1342  -5.0582  -5.0245  -4.9815  -4.9461  -4.9080
    -4.8637  -4.8297  -4.8110  -4.2902  -4.1855  -4.1528  -4.1103  -4.0779
    -4.0414  -3.9968  -3.9632  -3.9454  -3.5601  -2.9161  -2.7197  -2.4435
    -2.3048  -2.0187  -1.6272  -1.4009  -1.2450  -1.2320  -1.2145  -1.1813
    -1.1705  -1.1220  -1.0837  -1.0619  -1.0320  -1.0149  -0.9964  -0.8574
    -0.6714  -0.4540  -0.4022  -0.4008  -0.3688  -0.3300  -0.3105  -0.2706
    -0.2302  -0.2224

          k = 0.0500 0.4330 0.0000 ( 43856 PWs)   bands (ev):

    -8.4681  -8.4286  -8.3935  -8.3498  -8.3094  -8.2693  -8.2255  -8.1903
    -8.1704  -6.9689  -6.9237  -6.8890  -6.8457  -6.8066  -6.7671  -6.7235
    -6.6888  -6.6693  -5.2185  -5.1459  -5.1120  -5.0690  -5.0332  -4.9951
    -4.9509  -4.9168  -4.8980  -4.3628  -4.2707  -4.2377  -4.1953  -4.1617
    -4.1248  -4.0806  -4.0471  -4.0291  -3.4658  -2.7107  -2.5166  -2.2382
    -2.1393  -1.8492  -1.5152  -1.3148  -1.2322  -1.0444  -1.0307  -0.8327
    -0.7932  -0.7774  -0.7709  -0.7401  -0.7022  -0.6760  -0.6401  -0.5981
    -0.5872  -0.5637  -0.5478  -0.3585  -0.0458   0.0642   0.0872   0.1050
     0.1393   0.1664

          k = 0.0500 0.4907 0.0000 ( 43831 PWs)   bands (ev):

    -8.2283  -8.1867  -8.1516  -8.1079  -8.0677  -8.0278  -7.9839  -7.9487
    -7.9288  -7.3238  -7.2829  -7.2481  -7.2049  -7.1652  -7.1254  -7.0819
    -7.0473  -7.0276  -5.2749  -5.2044  -5.1705  -5.1275  -5.0915  -5.0531
    -5.0089  -4.9749  -4.9562  -4.4136  -4.3280  -4.2948  -4.2522  -4.2181
    -4.1810  -4.1370  -4.1035  -4.0854  -3.3795  -2.4767  -2.2878  -2.0099
    -2.0028  -1.6978  -1.5906  -1.4557  -1.3701  -1.1315  -1.1256  -0.9316
    -0.8007  -0.6895  -0.5735  -0.3586  -0.2866  -0.2623  -0.2472  -0.2182
    -0.1867  -0.1547  -0.1191  -0.0943  -0.0792   0.0293   0.0579   0.2829
     0.4365   0.5232

          k = 0.0500 0.5485 0.0000 ( 43888 PWs)   bands (ev):

    -7.9637  -7.9153  -7.8803  -7.8362  -7.7972  -7.7583  -7.7136  -7.6775
    -7.6578  -7.6433  -7.6127  -7.5780  -7.5351  -7.4947  -7.4547  -7.4116
    -7.3769  -7.3572  -5.3032  -5.2337  -5.1998  -5.1568  -5.1206  -5.0822
    -5.0380  -5.0041  -4.9854  -4.4395  -4.3567  -4.3235  -4.2809  -4.2465
    -4.2093  -4.1653  -4.1317  -4.1136  -3.3264  -2.2169  -2.0612  -1.9572
    -1.8943  -1.7400  -1.7132  -1.5160  -1.4475  -1.3092  -1.1655  -0.9634
    -0.8457  -0.5898  -0.5437  -0.3431  -0.2571  -0.1633  -0.0127   0.1734
     0.1938   0.2156   0.2286   0.2572   0.2825   0.3017   0.3190   0.3282
     0.4194   0.5907

          k = 0.1000 0.1732 0.0000 ( 44007 PWs)   bands (ev):

    -9.1479  -9.1118  -9.0767  -9.0331  -8.9921  -8.9516  -8.9080  -8.8728
    -8.8527  -5.1268  -4.9360  -4.9288  -4.9164  -4.8953  -4.8881  -4.8526
    -4.8508  -4.8188  -4.8104  -4.7820  -4.7700  -4.7356  -4.7324  -4.7018
    -4.7003  -4.6828  -4.6824  -4.0184  -3.3829  -3.3657  -3.3590  -3.3492
    -3.3388  -3.3238  -3.3074  -3.2914  -3.2758  -3.2672  -3.1709  -2.8991
    -2.8850  -2.8305  -2.7985  -2.7668  -2.7511  -2.7198  -2.6972  -2.6941
    -2.6801  -2.6556  -2.4097  -2.0269  -1.6778  -1.5749  -1.4403  -1.4053
    -1.3979  -1.3864  -1.3650  -1.3596  -1.3255  -1.3241  -1.2984  -1.2854
    -1.2576  -1.2479

          k = 0.1000 0.2309 0.0000 ( 43999 PWs)   bands (ev):

    -9.0418  -9.0053  -8.9702  -8.9266  -8.8857  -8.8452  -8.8016  -8.7664
    -8.7463  -5.5040  -5.4116  -5.3778  -5.3341  -5.3006  -5.2637  -5.2175
    -5.1815  -5.1651  -5.1585  -5.1169  -5.0832  -5.0408  -5.0044  -4.9665
    -4.9231  -4.8893  -4.8707  -3.9850  -3.4319  -3.4108  -3.3900  -3.3682
    -3.3352  -3.3067  -3.2838  -3.2668  -3.2574  -3.2479  -3.0701  -2.7961
    -2.7189  -2.6299  -2.5997  -2.5715  -2.5606  -2.5237  -2.4958  -2.4651
    -2.4412  -2.4254  -2.3031  -1.9247  -1.5769  -1.3913  -1.2308  -1.0176
    -0.9856  -0.9453  -0.9356  -0.8871  -0.8416  -0.8307  -0.8022  -0.7854
    -0.7356  -0.7027

          k = 0.1000 0.2887 0.0000 ( 43971 PWs)   bands (ev):

    -8.9055  -8.8685  -8.8333  -8.7897  -8.7489  -8.7085  -8.6649  -8.6297
    -8.6097  -5.9344  -5.8683  -5.8341  -5.7907  -5.7539  -5.7154  -5.6709
    -5.6364  -5.6175  -5.3365  -5.2783  -5.2444  -5.2017  -5.1651  -5.1269
    -5.0832  -5.0492  -5.0304  -3.9513  -3.5580  -3.5296  -3.4894  -3.4839
    -3.4417  -3.4001  -3.3745  -3.3532  -3.3374  -3.1360  -2.9387  -2.6639
    -2.5261  -2.3127  -2.2727  -2.2411  -2.2025  -2.1892  -2.1499  -2.1173
    -2.0923  -2.0639  -2.0467  -1.7953  -1.4473  -1.2781  -1.1158  -0.6109
    -0.5818  -0.5567  -0.5354  -0.4894  -0.4536  -0.4288  -0.3992  -0.3829
    -0.2171  -0.1028

          k = 0.1000 0.3464 0.0000 ( 43932 PWs)   bands (ev):

    -8.7393  -8.7014  -8.6663  -8.6227  -8.5820  -8.5417  -8.4980  -8.4628
    -8.4428  -6.3529  -6.2980  -6.2636  -6.2202  -6.1822  -6.1432  -6.0992
    -6.0647  -6.0455  -5.4694  -5.4104  -5.3764  -5.3337  -5.2967  -5.2583
    -5.2146  -5.1805  -5.1617  -3.9432  -3.6745  -3.6437  -3.6012  -3.5809
    -3.5444  -3.4965  -3.4605  -3.4461  -3.4287  -2.9747  -2.7780  -2.5023
    -2.3633  -2.0869  -1.8654  -1.8486  -1.8187  -1.7812  -1.7490  -1.7125
    -1.6718  -1.6463  -1.6327  -1.6204  -1.2895  -1.2343  -1.0389  -0.6284
    -0.4498  -0.2601  -0.1790  -0.1734  -0.1463  -0.1072  -0.1003  -0.0531
    -0.0230   0.0006

          k = 0.1000 0.4041 0.0000 ( 43876 PWs)   bands (ev):

    -8.5433  -8.5043  -8.4692  -8.4256  -8.3851  -8.3449  -8.3012  -8.2660
    -8.2460  -6.7481  -6.6998  -6.6652  -6.6219  -6.5831  -6.5438  -6.5000
    -6.4654  -6.4460  -5.5715  -5.5134  -5.4793  -5.4364  -5.3993  -5.3607
    -5.3170  -5.2830  -5.2639  -3.9657  -3.7691  -3.7373  -3.6948  -3.6678
    -3.6318  -3.5851  -3.5508  -3.5339  -3.4054  -2.7839  -2.5889  -2.3115
    -2.1960  -1.9085  -1.5544  -1.4031  -1.3892  -1.3639  -1.3274  -1.3105
    -1.2706  -1.2307  -1.2162  -1.1865  -1.1693  -1.1017  -1.0168  -0.8791
    -0.8241  -0.5602  -0.4764  -0.2121   0.0521   0.1402   0.2384   0.2861
     0.3089   0.3279

          k = 0.1000 0.4619 0.0000 ( 43806 PWs)   bands (ev):

    -8.3180  -8.2773  -8.2422  -8.1985  -8.1583  -8.1182  -8.0744  -8.0393
    -8.0193  -7.1168  -7.0733  -7.0385  -6.9952  -6.9558  -6.9163  -6.8727
    -6.8380  -6.8184  -5.6442  -5.5870  -5.5528  -5.5099  -5.4726  -5.4339
    -5.3903  -5.3562  -5.3371  -3.9988  -3.8379  -3.8057  -3.7631  -3.7336
    -3.6973  -3.6515  -3.6177  -3.6003  -3.3422  -2.5642  -2.3724  -2.0916
    -2.0392  -1.7396  -1.4653  -1.3772  -1.2166  -1.1651  -0.9514  -0.9232
    -0.9173  -0.8878  -0.8863  -0.8493  -0.8226  -0.7877  -0.7467  -0.7363
    -0.7130  -0.6972  -0.6576  -0.4928  -0.1861  -0.0170   0.0800   0.2527
     0.2601   0.4600

          k = 0.1000 0.5196 0.0000 ( 43824 PWs)   bands (ev):

    -8.0647  -8.0207  -7.9856  -7.9418  -7.9020  -7.8622  -7.8181  -7.7829
    -7.7630  -7.4562  -7.4179  -7.3831  -7.3398  -7.2999  -7.2600  -7.2167
    -7.1820  -7.1623  -5.6878  -5.6312  -5.5970  -5.5540  -5.5167  -5.4780
    -5.4343  -5.4001  -5.3811  -4.0242  -3.8797  -3.8471  -3.8046  -3.7741
    -3.7375  -3.6920  -3.6583  -3.6407  -3.2832  -2.3166  -2.1352  -1.9453
    -1.8424  -1.7240  -1.5895  -1.5136  -1.3324  -1.2577  -1.0647  -0.9560
    -0.7875  -0.6436  -0.5019  -0.4359  -0.4217  -0.4085  -0.3883  -0.3713
    -0.3393  -0.3110  -0.2796  -0.2550  -0.2416  -0.1885  -0.0720   0.0346
     0.1457   0.2226

          k = 0.1000 0.5774 0.0000 ( 43838 PWs)   bands (ev):

    -7.8268  -7.7435  -7.7355  -7.7231  -7.7002  -7.6936  -7.6563  -7.6546
    -7.6169  -7.6121  -7.5782  -7.5696  -7.5326  -7.5301  -7.4977  -7.4964
    -7.4776  -7.4769  -5.7023  -5.6459  -5.6117  -5.5688  -5.5314  -5.4927
    -5.4490  -5.4148  -5.3957  -4.0335  -3.8937  -3.8611  -3.8185  -3.7877
    -3.7510  -3.7056  -3.6719  -3.6543  -3.2593  -2.0669  -2.0334  -1.9581
    -1.8402  -1.7885  -1.5652  -1.5636  -1.4366  -1.2871  -1.1377  -0.9816
    -0.7331  -0.6640  -0.3851  -0.3641  -0.3485  -0.1444  -0.1431  -0.0902
    -0.0824  -0.0721  -0.0620  -0.0482  -0.0336  -0.0197  -0.0066  -0.0000
     0.0262   0.2069

          k = 0.1500 0.2598 0.0000 ( 43925 PWs)   bands (ev):

    -8.9207  -8.8837  -8.8485  -8.8049  -8.7641  -8.7237  -8.6801  -8.6449
    -8.6248  -5.7271  -5.5959  -5.5884  -5.5761  -5.5543  -5.5475  -5.5113
    -5.5095  -5.4751  -5.4683  -5.4374  -5.4271  -5.3916  -5.3889  -5.3576
    -5.3563  -5.3383  -5.3378  -3.9096  -3.1637  -3.1525  -3.1454  -3.1352
    -3.1248  -3.1107  -3.0946  -3.0786  -3.0631  -3.0549  -2.9516  -2.6789
    -2.6708  -2.6127  -2.5809  -2.5496  -2.5348  -2.5033  -2.4807  -2.4777
    -2.4636  -2.4387  -2.1975  -1.8120  -1.4617  -1.2858  -1.1062  -0.3520
    -0.3462  -0.3323  -0.3143  -0.3042  -0.2809  -0.2694  -0.2667  -0.2304
    -0.2176  -0.1951

          k = 0.1500 0.3175 0.0000 ( 43918 PWs)   bands (ev):

    -8.7695  -8.7318  -8.6967  -8.6531  -8.6123  -8.5720  -8.5284  -8.4932
    -8.4732  -6.0999  -6.0313  -5.9971  -5.9534  -5.9174  -5.8796  -5.8342
    -5.7986  -5.7802  -5.7706  -5.7341  -5.7001  -5.6577  -5.6195  -5.5806
    -5.5376  -5.5036  -5.4847  -3.8342  -3.1745  -3.1536  -3.1328  -3.1112
    -3.0785  -3.0501  -3.0270  -3.0073  -2.9985  -2.9921  -2.8071  -2.5317
    -2.4710  -2.3714  -2.3416  -2.3139  -2.3027  -2.2654  -2.2383  -2.2085
    -2.1847  -2.1692  -2.0529  -1.6739  -1.3181  -1.2252  -1.0511  -0.3726
    -0.2271  -0.1211  -0.0690   0.0297   0.0735   0.0808   0.1199   0.1491
     0.1544   0.1871

          k = 0.1500 0.3753 0.0000 ( 43900 PWs)   bands (ev):

    -8.5885  -8.5498  -8.5147  -8.4711  -8.4305  -8.3903  -8.3466  -8.3114
    -8.2914  -6.5010  -6.4468  -6.4122  -6.3688  -6.3307  -6.2917  -6.2476
    -6.2129  -6.1936  -5.9000  -5.8528  -5.8185  -5.7757  -5.7377  -5.6987
    -5.6553  -5.6212  -5.6022  -3.7689  -3.2565  -3.2288  -3.1914  -3.1843
    -3.1419  -3.1015  -3.0758  -3.0540  -3.0383  -2.8275  -2.6325  -2.3556
    -2.2533  -2.0162  -1.9761  -1.9451  -1.9070  -1.8974  -1.8556  -1.8220
    -1.7981  -1.7702  -1.7535  -1.5168  -1.2482  -1.1449  -0.9127  -0.7730
    -0.5936  -0.4024  -0.3149  -0.1897  -0.0676   0.0083   0.1765   0.2470
     0.4067   0.4921

          k = 0.1500 0.4330 0.0000 ( 43865 PWs)   bands (ev):

    -8.3779  -8.3378  -8.3027  -8.2590  -8.2187  -8.1786  -8.1348  -8.0997
    -8.0797  -6.8814  -6.8342  -6.7995  -6.7562  -6.7172  -6.6778  -6.6341
    -6.5995  -6.5799  -5.9904  -5.9416  -5.9072  -5.8643  -5.8262  -5.7872
    -5.7438  -5.7096  -5.6905  -3.7249  -3.3296  -3.2995  -3.2566  -3.2438
    -3.2040  -3.1560  -3.1192  -3.1154  -3.0985  -2.6225  -2.4296  -2.1503
    -2.0754  -1.7819  -1.5306  -1.5159  -1.4880  -1.4511  -1.4321  -1.3970
    -1.3603  -1.3420  -1.3142  -1.2974  -1.2270  -1.1433  -0.9561  -0.9444
    -0.7341  -0.6901  -0.6220  -0.3855  -0.2732  -0.1495  -0.0623   0.1640
     0.1744   0.3628

          k = 0.1500 0.4907 0.0000 ( 43839 PWs)   bands (ev):

    -8.1384  -8.0961  -8.0610  -8.0172  -7.9772  -7.9373  -7.8934  -7.8582
    -7.8383  -7.2351  -7.1931  -7.1583  -7.1150  -7.0754  -7.0358  -6.9922
    -6.9576  -6.9379  -6.0499  -6.0008  -5.9665  -5.9235  -5.8853  -5.8463
    -5.8028  -5.7686  -5.7494  -3.7045  -3.3811  -3.3500  -3.3072  -3.2870
    -3.2492  -3.2009  -3.1655  -3.1499  -3.1078  -2.3888  -2.2012  -1.9370
    -1.9154  -1.6114  -1.5042  -1.3704  -1.2835  -1.0869  -1.0420  -1.0390
    -1.0208  -1.0049  -0.9732  -0.9414  -0.9094  -0.8728  -0.8515  -0.8378
    -0.8237  -0.7145  -0.6410  -0.4884  -0.4123  -0.3194  -0.1700  -0.1195
     0.1186   0.1404

          k = 0.1500 0.5485 0.0000 ( 43834 PWs)   bands (ev):

    -7.8744  -7.8249  -7.7899  -7.7458  -7.7070  -7.6681  -7.6233  -7.5873
    -7.5677  -7.5535  -7.5225  -7.4879  -7.4449  -7.4047  -7.3647  -7.3215
    -7.2869  -7.2672  -6.0795  -6.0304  -5.9961  -5.9532  -5.9149  -5.8758
    -5.8323  -5.7980  -5.7789  -3.6986  -3.4075  -3.3760  -3.3332  -3.3105
    -3.2731  -3.2252  -3.1905  -3.1741  -3.0914  -2.1290  -1.9745  -1.8691
    -1.8071  -1.6521  -1.6272  -1.4344  -1.3598  -1.2389  -1.0784  -0.9012
    -0.7601  -0.6249  -0.5855  -0.5643  -0.5379  -0.5295  -0.5042  -0.4799
    -0.4610  -0.4591  -0.4433  -0.4372  -0.4312  -0.3481  -0.2380  -0.1713
    -0.1594   0.0403

          k = 0.2000 0.3464 0.0000 ( 43889 PWs)   bands (ev):

    -8.6035  -8.5650  -8.5298  -8.4862  -8.4456  -8.4054  -8.3617  -8.3265
    -8.3065  -6.2792  -6.1730  -6.1653  -6.1530  -6.1308  -6.1241  -6.0876
    -6.0858  -6.0500  -6.0441  -6.0119  -6.0024  -5.9663  -5.9637  -5.9321
    -5.9307  -5.9124  -5.9119  -3.7352  -2.8585  -2.8544  -2.8471  -2.8360
    -2.8250  -2.8125  -2.7967  -2.7806  -2.7653  -2.7574  -2.6456  -2.3796
    -2.3700  -2.3132  -2.2821  -2.2512  -2.2381  -2.2059  -2.1831  -2.1803
    -2.1661  -2.1402  -1.9148  -1.5320  -1.2297  -1.1590  -0.9218  -0.5275
    -0.4944  -0.4219  -0.3072  -0.2579  -0.0436  -0.0422   0.0769   0.2205
     0.3513   0.5036

          k = 0.2000 0.4041 0.0000 ( 43892 PWs)   bands (ev):

    -8.4079  -8.3681  -8.3330  -8.2893  -8.2490  -8.2088  -8.1650  -8.1299
    -8.1100  -6.6233  -6.5661  -6.5315  -6.4878  -6.4505  -6.4123  -6.3673
    -6.3316  -6.3126  -6.3006  -6.2672  -6.2329  -6.1904  -6.1514  -6.1120
    -6.0690  -6.0349  -6.0157  -3.6489  -2.8328  -2.8122  -2.7917  -2.7702
    -2.7378  -2.7094  -2.6862  -2.6656  -2.6540  -2.6473  -2.4583  -2.1797
    -2.1577  -2.0351  -2.0062  -1.9794  -1.9678  -1.9291  -1.9024  -1.8755
    -1.8520  -1.8372  -1.7435  -1.4000  -1.2038  -0.9729  -0.8925  -0.7547
    -0.7269  -0.6391  -0.5734  -0.4295  -0.3956  -0.2057  -0.1410   0.0014
     0.1307   0.3309

          k = 0.2000 0.4619 0.0000 ( 43839 PWs)   bands (ev):

    -8.1830  -8.1413  -8.1062  -8.0625  -8.0224  -7.9824  -7.9386  -7.9035
    -7.8836  -6.9858  -6.9388  -6.9041  -6.8607  -6.8217  -6.7823  -6.7385
    -6.7038  -6.6843  -6.3837  -6.3419  -6.3075  -6.2646  -6.2257  -6.1863
    -6.1431  -6.1089  -6.0897  -3.5811  -2.8719  -2.8452  -2.8129  -2.8011
    -2.7599  -2.7210  -2.6949  -2.6720  -2.6565  -2.4320  -2.2427  -1.9601
    -1.9511  -1.6452  -1.6093  -1.5814  -1.5549  -1.5404  -1.4983  -1.4641
    -1.4380  -1.4111  -1.3951  -1.3340  -1.2459  -1.0879  -1.0355  -0.8374
    -0.7919  -0.7573  -0.6644  -0.5454  -0.5277  -0.4586  -0.2760  -0.2119
    -0.0053   0.0799

          k = 0.2000 0.5196 0.0000 ( 43840 PWs)   bands (ev):

    -7.9304  -7.8850  -7.8499  -7.8061  -7.7664  -7.7268  -7.6826  -7.6474
    -7.6276  -7.3229  -7.2829  -7.2481  -7.2048  -7.1652  -7.1255  -7.0820
    -7.0473  -7.0276  -6.4299  -6.3867  -6.3521  -6.3092  -6.2703  -6.2309
    -6.1877  -6.1534  -6.1341  -3.5385  -2.9031  -2.8743  -2.8333  -2.8293
    -2.7840  -2.7391  -2.7127  -2.6948  -2.6775  -2.1848  -2.0065  -1.8259
    -1.7106  -1.5942  -1.4604  -1.3856  -1.2360  -1.1472  -1.1308  -1.1264
    -1.1116  -1.0812  -1.0493  -1.0220  -0.9910  -0.9678  -0.9581  -0.9476
    -0.8319  -0.7858  -0.7013  -0.5785  -0.5148  -0.4928  -0.2982  -0.2576
    -0.2527  -0.0469

          k = 0.2000 0.5774 0.0000 ( 43846 PWs)   bands (ev):

    -7.6949  -7.6080  -7.6000  -7.5876  -7.5649  -7.5582  -7.5210  -7.5192
    -7.4817  -7.4768  -7.4432  -7.4343  -7.3975  -7.3950  -7.3626  -7.3613
    -7.3425  -7.3419  -6.4451  -6.4015  -6.3670  -6.3241  -6.2851  -6.2458
    -6.2025  -6.1682  -6.1489  -3.5242  -2.9144  -2.8850  -2.8425  -2.8382
    -2.7929  -2.7462  -2.7179  -2.7041  -2.6862  -1.9345  -1.9017  -1.8258
    -1.7104  -1.6565  -1.4336  -1.4320  -1.3461  -1.1559  -1.0547  -0.8514
    -0.8148  -0.8108  -0.8024  -0.7900  -0.7809  -0.7695  -0.7549  -0.7420
    -0.7289  -0.7212  -0.6993  -0.5662  -0.5345  -0.5039  -0.2713  -0.2525
    -0.2355  -0.1538

          k = 0.2500 0.4330 0.0000 ( 43893 PWs)   bands (ev):

    -8.1979  -8.1564  -8.1213  -8.0776  -8.0375  -7.9975  -7.9537  -7.9186
    -7.8987  -6.7555  -6.6641  -6.6562  -6.6439  -6.6214  -6.6148  -6.5780
    -6.5762  -6.5396  -6.5343  -6.5013  -6.4923  -6.4558  -6.4534  -6.4214
    -6.4201  -6.4016  -6.4010  -3.5573  -2.4727  -2.4689  -2.4630  -2.4513
    -2.4386  -2.4295  -2.4143  -2.3981  -2.3829  -2.3754  -2.2555  -2.0258
    -1.9742  -1.9437  -1.9141  -1.8846  -1.8755  -1.8422  -1.8195  -1.8171
    -1.8031  -1.7806  -1.5990  -1.2977  -1.0609  -1.0094  -0.9712  -0.9022
    -0.7800  -0.7723  -0.7355  -0.5538  -0.5159  -0.5150  -0.3530  -0.2442
    -0.0740   0.0543

          k = 0.2500 0.4907 0.0000 ( 43814 PWs)   bands (ev):

    -7.9593  -7.9151  -7.8800  -7.8362  -7.7964  -7.7566  -7.7127  -7.6775
    -7.6577  -7.0628  -7.0138  -6.9791  -6.9354  -6.8971  -6.8585  -6.8139
    -6.7783  -6.7590  -6.7449  -6.7136  -6.6793  -6.6367  -6.5970  -6.5574
    -6.5145  -6.4802  -6.4608  -3.4916  -2.4089  -2.3890  -2.3689  -2.3470
    -2.3149  -2.2865  -2.2633  -2.2427  -2.2313  -2.2111  -2.0303  -1.8216
    -1.7399  -1.6449  -1.6209  -1.6021  -1.5830  -1.5473  -1.5187  -1.4964
    -1.4730  -1.4596  -1.4367  -1.3314  -1.2032  -1.1212  -1.0762  -1.0050
    -0.8646  -0.8571  -0.8137  -0.6283  -0.5739  -0.5425  -0.4120  -0.3172
    -0.2970  -0.0834

          k = 0.2500 0.5485 0.0000 ( 43847 PWs)   bands (ev):

    -7.6972  -7.6444  -7.6094  -7.5652  -7.5268  -7.4882  -7.4432  -7.4071
    -7.3875  -7.3750  -7.3425  -7.3079  -7.2648  -7.2250  -7.1853  -7.1418
    -7.1071  -7.0875  -6.7814  -6.7439  -6.7094  -6.6665  -6.6271  -6.5874
    -6.5443  -6.5100  -6.4905  -3.4570  -2.4105  -2.3863  -2.3611  -2.3417
    -2.3030  -2.2668  -2.2401  -2.2163  -2.2014  -1.9537  -1.8034  -1.6930
    -1.6349  -1.4767  -1.4649  -1.3221  -1.2512  -1.2348  -1.2216  -1.2011
    -1.1847  -1.1748  -1.1650  -1.1473  -1.1297  -1.1131  -1.1042  -1.0585
    -0.9421  -0.9034  -0.8407  -0.6634  -0.6027  -0.5851  -0.3986  -0.3104
    -0.2943  -0.2812

          k = 0.3000 0.5196 0.0000 ( 43811 PWs)   bands (ev):

    -7.7091  -7.6592  -7.6242  -7.5802  -7.5412  -7.5018  -7.4573  -7.4220
    -7.4023  -7.1425  -7.0676  -7.0595  -7.0473  -7.0246  -7.0181  -6.9812
    -6.9794  -6.9420  -6.9372  -6.9034  -6.8950  -6.8582  -6.8558  -6.8237
    -6.8224  -6.8038  -6.8032  -3.4392  -2.0044  -1.9991  -1.9929  -1.9819
    -1.9667  -1.9607  -1.9479  -1.9316  -1.9160  -1.9087  -1.7997  -1.6572
    -1.5675  -1.5481  -1.5334  -1.5174  -1.4961  -1.4915  -1.4835  -1.4782
    -1.4733  -1.4717  -1.4052  -1.3701  -1.2972  -1.2293  -1.1672  -1.1292
    -0.9553  -0.9085  -0.9069  -0.7257  -0.6336  -0.6038  -0.4602  -0.3613
    -0.3458  -0.3326

          k = 0.3000 0.5774 0.0000 ( 43826 PWs)   bands (ev):

    -7.4849  -7.3825  -7.3748  -7.3622  -7.3399  -7.3329  -7.2958  -7.2940
    -7.2580  -7.2517  -7.2203  -7.2093  -7.1735  -7.1700  -7.1378  -7.1365
    -7.1178  -7.1173  -7.0974  -7.0715  -7.0374  -6.9952  -6.9549  -6.9149
    -6.8722  -6.8379  -6.8184  -3.4216  -1.9252  -1.9082  -1.8900  -1.8670
    -1.8370  -1.8105  -1.7879  -1.7679  -1.7572  -1.7138  -1.6843  -1.6055
    -1.5184  -1.4499  -1.4430  -1.4364  -1.4336  -1.4256  -1.4206  -1.4039
    -1.3897  -1.3776  -1.3651  -1.3577  -1.3461  -1.2144  -1.2128  -1.1778
    -1.0147  -0.9380  -0.9222  -0.7897  -0.6454  -0.6347  -0.5856  -0.5753
    -0.5624  -0.5502

     the Fermi energy is    -0.9956 ev

!    total energy              =    -447.83270940 Ry
     Harris-Foulkes estimate   =    -447.83272807 Ry
     estimated scf accuracy    <       0.00001852 Ry

     The total energy is the sum of the following terms:

     one-electron contribution =   -9895.40737346 Ry
     hartree contribution      =    4965.75740634 Ry
     xc contribution           =    -355.77006909 Ry
     ewald contribution        =    4837.58596085 Ry
     smearing contrib. (-TS)   =       0.00136597 Ry

     convergence has been achieved in  83 iterations

     negative rho (up, down):  4.117E-05 0.000E+00

     Forces acting on atoms (cartesian axes, Ry/au):

     atom    1 type  1   force =     0.00006721    0.00003880    0.00024573
     atom    2 type  1   force =     0.00000000    0.00000000    0.00022491
     atom    3 type  1   force =    -0.00006721    0.00003880    0.00024573
     atom    4 type  1   force =     0.00000000   -0.00007761    0.00024573
     atom    5 type  1   force =    -0.00000000   -0.00000000    0.00419163
     atom    6 type  1   force =    -0.00004583   -0.00002646    0.00418669
     atom    7 type  1   force =    -0.00000000    0.00005292    0.00418669
     atom    8 type  1   force =     0.00004583   -0.00002646    0.00418669
     atom    9 type  1   force =     0.00000000   -0.00001339   -0.00000986
     atom   10 type  1   force =    -0.00001160    0.00000670   -0.00000986
     atom   11 type  1   force =     0.00000000    0.00000000   -0.00000442
     atom   12 type  1   force =     0.00001160    0.00000670   -0.00000986
     atom   13 type  1   force =     0.00031259    0.00018048    0.00007968
     atom   14 type  1   force =     0.00000000   -0.00000000   -0.00000369
     atom   15 type  1   force =    -0.00031259    0.00018048    0.00007968
     atom   16 type  1   force =     0.00000000   -0.00036095    0.00007968
     atom   17 type  1   force =     0.00000000    0.00000000    0.00014566
     atom   18 type  1   force =    -0.00000890   -0.00000514    0.00007009
     atom   19 type  1   force =     0.00000000    0.00001027    0.00007009
     atom   20 type  1   force =     0.00000890   -0.00000514    0.00007009
     atom   21 type  1   force =     0.00000000   -0.00093239   -0.00002895
     atom   22 type  1   force =    -0.00080747    0.00046619   -0.00002895
     atom   23 type  1   force =     0.00000000   -0.00000000    0.00071621
     atom   24 type  1   force =     0.00080747    0.00046619   -0.00002895
     atom   25 type  1   force =    -0.00196302   -0.00113335   -0.00649948
     atom   26 type  1   force =     0.00000000    0.00000000   -0.00203730
     atom   27 type  1   force =     0.00196302   -0.00113335   -0.00649948
     atom   28 type  1   force =     0.00000000    0.00226670   -0.00649948
     atom   29 type  1   force =     0.00000000    0.00000000    0.03944676
     atom   30 type  1   force =    -0.00008486   -0.00004899   -0.00025499
     atom   31 type  1   force =    -0.00000000    0.00009799   -0.00025499
     atom   32 type  1   force =     0.00008486   -0.00004899   -0.00025499
     atom   33 type  1   force =     0.00000000   -0.00154301   -0.00422521
     atom   34 type  1   force =    -0.00133629    0.00077151   -0.00422521
     atom   35 type  1   force =     0.00000000    0.00000000   -0.00469443
     atom   36 type  1   force =     0.00133629    0.00077151   -0.00422521
     atom   37 type  2   force =     0.00000000    0.00000000   -0.01867642

     Total force =     0.046990     Total SCF correction =     0.004093


     Computing stress (Cartesian axis) and pressure


     negative rho (up, down):  4.117E-05 0.000E+00
          total   stress  (Ry/bohr**3)                   (kbar)     P=  -26.74
  -0.00022084   0.00000000   0.00000000        -32.49      0.00      0.00
   0.00000000  -0.00022084   0.00000000          0.00    -32.49      0.00
   0.00000000  -0.00000000  -0.00010369          0.00     -0.00    -15.25


     BFGS Geometry Optimization

     number of scf cycles    =   1
     number of bfgs steps    =   0

     energy   new            =    -447.8327093957 Ry

     new trust radius        =       0.0394467607 bohr
     new conv_thr            =       0.0000360000 Ry


ATOMIC_POSITIONS (crystal)
Al       0.333341827   0.166670660   0.055557053
Al       0.333333492   0.666666508   0.055556921
Al       0.833329325   0.166670660   0.055557053
Al       0.833329325   0.666658173   0.055557053
Al      -0.000000000  -0.000000000   0.000026526
Al      -0.000005683   0.499997159   0.000026494
Al       0.500002841   0.000005683   0.000026494
Al       0.500002841   0.499997159   0.000026494
Al       0.166665774   0.333332054   0.111111102
Al       0.166665774   0.833334211   0.111111102
Al       0.666666508   0.333333492   0.111111136
Al       0.666667946   0.833334211   0.111111102
Al       0.333372256   0.166685875   0.222222669
Al       0.333333492   0.666666508   0.222222141
Al       0.833314110   0.166685875   0.222222669
Al       0.833314110   0.666627744   0.222222669
Al       0.000000000   0.000000000   0.166667588
Al      -0.000001103   0.499999448   0.166667110
Al       0.500000552   0.000001103   0.166667110
Al       0.500000552   0.499999448   0.166667110
Al       0.166616426   0.333233359   0.277777648
Al       0.166616426   0.833383559   0.277777648
Al       0.666666508   0.333333492   0.277782363
Al       0.666766641   0.833383559   0.277777648
Al       0.333090062   0.166544778   0.388847701
Al       0.333333492   0.666666508   0.388875938
Al       0.833455207   0.166544778   0.388847701
Al       0.833455207   0.666909938   0.388847701
Al       0.000000000   0.000000000   0.333582962
Al      -0.000010523   0.499994738   0.333331720
Al       0.500005262   0.000010523   0.333331720
Al       0.500005262   0.499994738   0.333331720
Al       0.166583638   0.333167782   0.444417759
Al       0.166583638   0.833416347   0.444417759
Al       0.666666508   0.333333492   0.444414790
Al       0.666832218   0.833416347   0.444417759
H        0.000000000   0.000000000   0.360992878



     Writing output data file Al_111_3_3.save/
     NEW-OLD atomic charge density approx. for the potential

     negative rho (up, down):  4.495E-05 0.000E+00

     total cpu time spent up to now is   157047.3 secs

     Self-consistent Calculation

     iteration #  1     ecut=    30.00 Ry     beta= 0.30
     Davidson diagonalization with overlap
     c_bands:  1 eigenvalues not converged
     c_bands:  1 eigenvalues not converged
     c_bands:  1 eigenvalues not converged
     c_bands:  1 eigenvalues not converged
     c_bands:  1 eigenvalues not converged
     ethr =  1.00E-06,  avg # of iterations = 10.1

     negative rho (up, down):  1.771E-04 0.000E+00

     total cpu time spent up to now is   161087.7 secs

     total energy              =    -447.83502876 Ry
     Harris-Foulkes estimate   =    -447.83697026 Ry
     estimated scf accuracy    <       0.65125144 Ry

     iteration #  2     ecut=    30.00 Ry     beta= 0.30
     Davidson diagonalization with overlap
     ethr =  5.97E-04,  avg # of iterations =  1.0

     negative rho (up, down):  8.136E-04 0.000E+00

     total cpu time spent up to now is   162910.2 secs

     total energy              =    -447.83272174 Ry
     Harris-Foulkes estimate   =    -447.83534475 Ry
     estimated scf accuracy    <       0.29151187 Ry

     iteration #  3     ecut=    30.00 Ry     beta= 0.30
