--------------------------------------------------------------------------
[[2987,1],0]: A high-performance Open MPI point-to-point messaging module
was unable to find any relevant network interfaces:

Module: OpenFabrics (openib)
  Host: ubuntu

Another transport will be used instead, although this may result in
lower performance.
--------------------------------------------------------------------------

     Program PWSCF v.5.1 starts on  3Jun2020 at 18:24:23 

     This program is part of the open-source Quantum ESPRESSO suite
     for quantum simulation of materials; please cite
         "P. Giannozzi et al., J. Phys.:Condens. Matter 21 395502 (2009);
          URL http://www.quantum-espresso.org", 
     in publications or presentations arising from this work. More details at
     http://www.quantum-espresso.org/quote

     Parallel version (MPI), running on     1 processors
     Reading input from Al_111_H_site_0.pw.in

     Current dimensions of program PWSCF are:
     Max number of different atomic species (ntypx) = 10
     Max number of k-points (npk) =  40000
     Max angular momentum in pseudopotentials (lmaxx) =  3
               file H.pbe-rrkjus.UPF: wavefunction(s)  1S renormalized

     Subspace diagonalization in iterative solution of the eigenvalue problem:
     a serial algorithm will be used


     G-vector sticks info
     --------------------
     sticks:   dense  smooth     PW     G-vecs:    dense   smooth      PW
     Sum         301     241     85                61593    44015    8065



     bravais-lattice index     =            4
     lattice parameter (alat)  =       5.3760  a.u.
     unit-cell volume          =    1977.5856 (a.u.)^3
     number of atoms/cell      =           10
     number of atomic types    =            2
     number of electrons       =        28.00
     number of Kohn-Sham states=           18
     kinetic-energy cutoff     =      30.0000  Ry
     charge density cutoff     =     150.0000  Ry
     convergence threshold     =      9.0E-06
     mixing beta               =       0.3000
     number of iterations used =            8  local-TF  mixing
     Exchange-correlation      =  SLA  PW   PBE  PBE ( 1  4  3  4 0)
     nstep                     =           50


     celldm(1)=   5.376000  celldm(2)=   0.000000  celldm(3)=  14.696938
     celldm(4)=   0.000000  celldm(5)=   0.000000  celldm(6)=   0.000000

     crystal axes: (cart. coord. in units of alat)
               a(1) = (   1.000000   0.000000   0.000000 )  
               a(2) = (  -0.500000   0.866025   0.000000 )  
               a(3) = (   0.000000   0.000000  14.696938 )  

     reciprocal axes: (cart. coord. in units 2 pi/alat)
               b(1) = (  1.000000  0.577350 -0.000000 )  
               b(2) = (  0.000000  1.154701  0.000000 )  
               b(3) = (  0.000000 -0.000000  0.068041 )  


     PseudoPot. # 1 for Al read from file:
     ./Al.pbe-n-van.UPF
     MD5 check sum: b11ded24487aef5bc42d5c7a2e22a7b6
     Pseudo is Ultrasoft + core correction, Zval =  3.0
     Generated by new atomic code, or converted to UPF format
     Using radial grid of  893 points,  2 beta functions with: 
                l(1) =   0
                l(2) =   1
     Q(r) pseudized with  8 coefficients,  rinner =    0.900   0.900   0.900


     PseudoPot. # 2 for H  read from file:
     ./H.pbe-rrkjus.UPF
     MD5 check sum: 0433647300470310da31d564c103eed6
     Pseudo is Ultrasoft, Zval =  1.0
     Generated by new atomic code, or converted to UPF format
     Using radial grid of 1061 points,  2 beta functions with: 
                l(1) =   0
                l(2) =   0
     Q(r) pseudized with 0 coefficients 


     atomic species   valence    mass     pseudopotential
        Al             3.00    26.98000     Al( 1.00)
        H              1.00     1.00790     H ( 1.00)

      6 Sym. Ops. (no inversion) found



   Cartesian axes

     site n.     atom                  positions (alat units)
         1           Al  tau(   1) = (   0.0000000   0.5773502   1.6329930  )
         2           Al  tau(   2) = (   0.4999999   0.2886751   0.8164965  )
         3           Al  tau(   3) = (   0.0000000   0.0000000   0.0000000  )
         4           Al  tau(   4) = (   0.0000000   0.5773502   4.0824827  )
         5           Al  tau(   5) = (   0.4999999   0.2886751   3.2659862  )
         6           Al  tau(   6) = (   0.0000000   0.0000000   2.4494897  )
         7           Al  tau(   7) = (   0.0000000   0.5773502   6.5319725  )
         8           Al  tau(   8) = (   0.4999999   0.2886751   5.7154760  )
         9           Al  tau(   9) = (   0.0000000   0.0000000   4.8989795  )
        10           H   tau(  10) = (   0.0000000   0.5773502   6.7965174  )

     number of k points=    30  Marzari-Vanderbilt smearing, width (Ry)=  0.0250
                       cart. coord. in units 2pi/alat
        k(    1) = (   0.0000000   0.0000000   0.0000000), wk =   0.0078125
        k(    2) = (   0.0000000   0.0721688   0.0000000), wk =   0.0468750
        k(    3) = (   0.0000000   0.1443376   0.0000000), wk =   0.0468750
        k(    4) = (   0.0000000   0.2165064   0.0000000), wk =   0.0468750
        k(    5) = (   0.0000000   0.2886751   0.0000000), wk =   0.0468750
        k(    6) = (   0.0000000   0.3608439   0.0000000), wk =   0.0468750
        k(    7) = (   0.0000000   0.4330127   0.0000000), wk =   0.0468750
        k(    8) = (   0.0000000   0.5051815   0.0000000), wk =   0.0468750
        k(    9) = (   0.0000000  -0.5773503   0.0000000), wk =   0.0234375
        k(   10) = (   0.0625000   0.1082532   0.0000000), wk =   0.0468750
        k(   11) = (   0.0625000   0.1804220   0.0000000), wk =   0.0937500
        k(   12) = (   0.0625000   0.2525907   0.0000000), wk =   0.0937500
        k(   13) = (   0.0625000   0.3247595   0.0000000), wk =   0.0937500
        k(   14) = (   0.0625000   0.3969283   0.0000000), wk =   0.0937500
        k(   15) = (   0.0625000   0.4690971   0.0000000), wk =   0.0937500
        k(   16) = (   0.0625000   0.5412659   0.0000000), wk =   0.0937500
        k(   17) = (   0.1250000   0.2165064   0.0000000), wk =   0.0468750
        k(   18) = (   0.1250000   0.2886751   0.0000000), wk =   0.0937500
        k(   19) = (   0.1250000   0.3608439   0.0000000), wk =   0.0937500
        k(   20) = (   0.1250000   0.4330127   0.0000000), wk =   0.0937500
        k(   21) = (   0.1250000   0.5051815   0.0000000), wk =   0.0937500
        k(   22) = (   0.1250000   0.5773503   0.0000000), wk =   0.0468750
        k(   23) = (   0.1875000   0.3247595   0.0000000), wk =   0.0468750
        k(   24) = (   0.1875000   0.3969283   0.0000000), wk =   0.0937500
        k(   25) = (   0.1875000   0.4690971   0.0000000), wk =   0.0937500
        k(   26) = (   0.1875000   0.5412659   0.0000000), wk =   0.0937500
        k(   27) = (   0.2500000   0.4330127   0.0000000), wk =   0.0468750
        k(   28) = (   0.2500000   0.5051815   0.0000000), wk =   0.0937500
        k(   29) = (   0.2500000   0.5773503   0.0000000), wk =   0.0468750
        k(   30) = (   0.3125000   0.5412659   0.0000000), wk =   0.0468750

     Dense  grid:    61593 G-vectors     FFT dimensions: (  24,  24, 320)

     Smooth grid:    44015 G-vectors     FFT dimensions: (  20,  20, 288)

     Largest allocated arrays     est. size (Mb)     dimensions
        Kohn-Sham Wavefunctions         1.52 Mb     (    5537,   18)
        NL pseudopotentials             3.21 Mb     (    5537,   38)
        Each V/rho on FFT grid          2.81 Mb     (  184320)
        Each G-vector array             0.47 Mb     (   61593)
        G-vector shells                 0.01 Mb     (    1885)
     Largest temporary arrays     est. size (Mb)     dimensions
        Auxiliary wavefunctions         6.08 Mb     (    5537,   72)
        Each subspace H/S matrix        0.08 Mb     (      72,   72)
        Each <psi_i|beta_j> matrix      0.01 Mb     (      38,   18)
        Arrays for rho mixing          22.50 Mb     (  184320,    8)

     Initial potential from superposition of free atoms

     starting charge   27.88161, renormalised to   28.00000

     negative rho (up, down):  8.925E-05 0.000E+00
     Starting wfc are   37 randomized atomic wfcs

     total cpu time spent up to now is        4.3 secs

     per-process dynamical memory:    89.2 Mb

     Self-consistent Calculation

     iteration #  1     ecut=    30.00 Ry     beta=0.30
     Davidson diagonalization with overlap
     ethr =  1.00E-02,  avg # of iterations =  5.5

     negative rho (up, down):  4.301E-03 0.000E+00

     total cpu time spent up to now is       16.5 secs

     total energy              =    -113.70041375 Ry
     Harris-Foulkes estimate   =    -117.57250248 Ry
     estimated scf accuracy    <     583.93142839 Ry

     iteration #  2     ecut=    30.00 Ry     beta=0.30
     Davidson diagonalization with overlap
     ethr =  1.00E-02,  avg # of iterations =  1.9

     negative rho (up, down):  4.791E-02 0.000E+00

     total cpu time spent up to now is       23.5 secs

     total energy              =    -109.72780890 Ry
     Harris-Foulkes estimate   =    -114.35023466 Ry
     estimated scf accuracy    <     254.50432410 Ry

     iteration #  3     ecut=    30.00 Ry     beta=0.30
     Davidson diagonalization with overlap
     ethr =  1.00E-02,  avg # of iterations =  4.9

     negative rho (up, down):  5.031E-02 0.000E+00

     total cpu time spent up to now is       32.8 secs

     total energy              =    -111.94264041 Ry
     Harris-Foulkes estimate   =    -112.00946254 Ry
     estimated scf accuracy    <       4.17405788 Ry

     iteration #  4     ecut=    30.00 Ry     beta=0.30
     Davidson diagonalization with overlap
     ethr =  1.00E-02,  avg # of iterations =  1.6

     negative rho (up, down):  4.705E-02 0.000E+00

     total cpu time spent up to now is       38.7 secs

     total energy              =    -111.97450373 Ry
     Harris-Foulkes estimate   =    -112.01748271 Ry
     estimated scf accuracy    <       0.82610080 Ry

     iteration #  5     ecut=    30.00 Ry     beta=0.30
     Davidson diagonalization with overlap
     ethr =  2.95E-03,  avg # of iterations =  3.4

     negative rho (up, down):  4.476E-02 0.000E+00

     total cpu time spent up to now is       45.3 secs

     total energy              =    -112.03761382 Ry
     Harris-Foulkes estimate   =    -112.04928125 Ry
     estimated scf accuracy    <       1.31444818 Ry

     iteration #  6     ecut=    30.00 Ry     beta=0.30
     Davidson diagonalization with overlap
     ethr =  2.95E-03,  avg # of iterations =  1.0

     negative rho (up, down):  4.695E-02 0.000E+00

     total cpu time spent up to now is       51.0 secs

     total energy              =    -112.04865092 Ry
     Harris-Foulkes estimate   =    -112.04154399 Ry
     estimated scf accuracy    <       0.54588992 Ry

     iteration #  7     ecut=    30.00 Ry     beta=0.30
     Davidson diagonalization with overlap
     ethr =  1.95E-03,  avg # of iterations =  1.3

     negative rho (up, down):  3.659E-02 0.000E+00

     total cpu time spent up to now is       56.8 secs

     total energy              =    -111.97533597 Ry
     Harris-Foulkes estimate   =    -112.05120842 Ry
     estimated scf accuracy    <       1.21889213 Ry

     iteration #  8     ecut=    30.00 Ry     beta=0.30
     Davidson diagonalization with overlap
     ethr =  1.95E-03,  avg # of iterations =  2.3

     negative rho (up, down):  3.659E-02 0.000E+00

     total cpu time spent up to now is       63.5 secs

     total energy              =    -112.03967413 Ry
     Harris-Foulkes estimate   =    -112.04956165 Ry
     estimated scf accuracy    <       2.87616833 Ry

     iteration #  9     ecut=    30.00 Ry     beta=0.30
     Davidson diagonalization with overlap
     ethr =  1.95E-03,  avg # of iterations =  1.0

     negative rho (up, down):  3.247E-02 0.000E+00

     total cpu time spent up to now is       69.3 secs

     total energy              =    -112.02038265 Ry
     Harris-Foulkes estimate   =    -112.04121926 Ry
     estimated scf accuracy    <       2.02561902 Ry

     iteration # 10     ecut=    30.00 Ry     beta=0.30
     Davidson diagonalization with overlap
     ethr =  1.95E-03,  avg # of iterations =  1.1

     negative rho (up, down):  3.070E-02 0.000E+00

     total cpu time spent up to now is       74.8 secs

     total energy              =    -112.02178346 Ry
     Harris-Foulkes estimate   =    -112.02532563 Ry
     estimated scf accuracy    <       0.60271016 Ry

     iteration # 11     ecut=    30.00 Ry     beta=0.30
     Davidson diagonalization with overlap
     ethr =  1.95E-03,  avg # of iterations =  1.0

     negative rho (up, down):  2.072E-02 0.000E+00

     total cpu time spent up to now is       80.4 secs

     total energy              =    -112.02211871 Ry
     Harris-Foulkes estimate   =    -112.02257073 Ry
     estimated scf accuracy    <       0.41219305 Ry

     iteration # 12     ecut=    30.00 Ry     beta=0.30
     Davidson diagonalization with overlap
     ethr =  1.47E-03,  avg # of iterations =  1.2

     negative rho (up, down):  1.695E-02 0.000E+00

     total cpu time spent up to now is       86.2 secs

     total energy              =    -112.01337946 Ry
     Harris-Foulkes estimate   =    -112.02247911 Ry
     estimated scf accuracy    <       0.48072168 Ry

     iteration # 13     ecut=    30.00 Ry     beta=0.30
     Davidson diagonalization with overlap
     ethr =  1.47E-03,  avg # of iterations =  1.8

     negative rho (up, down):  1.459E-02 0.000E+00

     total cpu time spent up to now is       92.1 secs

     total energy              =    -112.01769698 Ry
     Harris-Foulkes estimate   =    -112.01778308 Ry
     estimated scf accuracy    <       0.00387527 Ry

     iteration # 14     ecut=    30.00 Ry     beta=0.30
     Davidson diagonalization with overlap
     ethr =  1.38E-05,  avg # of iterations =  7.0

     negative rho (up, down):  1.255E-02 0.000E+00

     total cpu time spent up to now is      100.5 secs

     total energy              =    -112.01886367 Ry
     Harris-Foulkes estimate   =    -112.01939659 Ry
     estimated scf accuracy    <       0.02985645 Ry

     iteration # 15     ecut=    30.00 Ry     beta=0.30
     Davidson diagonalization with overlap
     ethr =  1.38E-05,  avg # of iterations =  1.9

     negative rho (up, down):  8.428E-03 0.000E+00

     total cpu time spent up to now is      106.3 secs

     total energy              =    -112.01903780 Ry
     Harris-Foulkes estimate   =    -112.01906851 Ry
     estimated scf accuracy    <       0.00088305 Ry

     iteration # 16     ecut=    30.00 Ry     beta=0.30
     Davidson diagonalization with overlap
     c_bands:  1 eigenvalues not converged
     ethr =  3.15E-06,  avg # of iterations =  5.4

     negative rho (up, down):  4.883E-03 0.000E+00

     total cpu time spent up to now is      113.1 secs

     total energy              =    -112.01899477 Ry
     Harris-Foulkes estimate   =    -112.01910188 Ry
     estimated scf accuracy    <       0.00247116 Ry

     iteration # 17     ecut=    30.00 Ry     beta=0.30
     Davidson diagonalization with overlap
     ethr =  3.15E-06,  avg # of iterations =  2.6

     negative rho (up, down):  3.503E-03 0.000E+00

     total cpu time spent up to now is      119.3 secs

     total energy              =    -112.01903193 Ry
     Harris-Foulkes estimate   =    -112.01901792 Ry
     estimated scf accuracy    <       0.00203088 Ry

     iteration # 18     ecut=    30.00 Ry     beta=0.30
     Davidson diagonalization with overlap
     ethr =  3.15E-06,  avg # of iterations =  1.9

     negative rho (up, down):  3.587E-04 0.000E+00

     total cpu time spent up to now is      125.3 secs

     total energy              =    -112.01900761 Ry
     Harris-Foulkes estimate   =    -112.01903692 Ry
     estimated scf accuracy    <       0.00298863 Ry

     iteration # 19     ecut=    30.00 Ry     beta=0.30
     Davidson diagonalization with overlap
     ethr =  3.15E-06,  avg # of iterations =  2.5

     negative rho (up, down):  1.861E-04 0.000E+00

     total cpu time spent up to now is      132.5 secs

     total energy              =    -112.01900666 Ry
     Harris-Foulkes estimate   =    -112.01901421 Ry
     estimated scf accuracy    <       0.00181182 Ry

     iteration # 20     ecut=    30.00 Ry     beta=0.30
     Davidson diagonalization with overlap
     ethr =  3.15E-06,  avg # of iterations =  1.4

     negative rho (up, down):  4.339E-05 0.000E+00

     total cpu time spent up to now is      138.9 secs

     total energy              =    -112.01900188 Ry
     Harris-Foulkes estimate   =    -112.01900968 Ry
     estimated scf accuracy    <       0.00078490 Ry

     iteration # 21     ecut=    30.00 Ry     beta=0.30
     Davidson diagonalization with overlap
     ethr =  2.80E-06,  avg # of iterations =  1.8

     negative rho (up, down):  1.977E-05 0.000E+00

     total cpu time spent up to now is      144.9 secs

     total energy              =    -112.01900193 Ry
     Harris-Foulkes estimate   =    -112.01900390 Ry
     estimated scf accuracy    <       0.00024450 Ry

     iteration # 22     ecut=    30.00 Ry     beta=0.30
     Davidson diagonalization with overlap
     ethr =  8.73E-07,  avg # of iterations =  2.7

     negative rho (up, down):  3.264E-05 0.000E+00

     total cpu time spent up to now is      151.5 secs

     total energy              =    -112.01901183 Ry
     Harris-Foulkes estimate   =    -112.01901136 Ry
     estimated scf accuracy    <       0.00022375 Ry

     iteration # 23     ecut=    30.00 Ry     beta=0.30
     Davidson diagonalization with overlap
     ethr =  7.99E-07,  avg # of iterations =  1.5

     negative rho (up, down):  5.044E-05 0.000E+00

     total cpu time spent up to now is      157.7 secs

     total energy              =    -112.01900577 Ry
     Harris-Foulkes estimate   =    -112.01901222 Ry
     estimated scf accuracy    <       0.00028008 Ry

     iteration # 24     ecut=    30.00 Ry     beta=0.30
     Davidson diagonalization with overlap
     ethr =  7.99E-07,  avg # of iterations =  1.8

     negative rho (up, down):  5.029E-05 0.000E+00

     total cpu time spent up to now is      163.0 secs

     End of self-consistent calculation

          k = 0.0000 0.0000 0.0000 (  5537 PWs)   bands (ev):

    -9.4304  -9.2342  -8.8909  -8.4081  -7.7740  -6.9957  -6.0746  -5.0241
    -3.8457  -2.6280  -1.1571   0.3475   1.9285   3.5351   5.0032   5.8615
     6.1032   6.4784

          k = 0.0000 0.0722 0.0000 (  5524 PWs)   bands (ev):

    -9.3351  -9.1394  -8.7966  -8.3143  -7.6809  -6.9035  -5.9833  -4.9338
    -3.7569  -2.5407  -1.0712   0.4301   2.0073   3.6108   5.0805   5.9511
     6.1971   6.5557

          k = 0.0000 0.1443 0.0000 (  5500 PWs)   bands (ev):

    -9.0497  -8.8553  -8.5143  -8.0338  -7.4023  -6.6272  -5.7101  -4.6643
    -3.4925  -2.2807  -0.8170   0.6746   2.2394   3.8276   5.2945   6.2089
     6.4753   6.7614

          k = 0.0000 0.2165 0.0000 (  5496 PWs)   bands (ev):

    -8.5756  -8.3836  -8.0456  -7.5682  -6.9402  -6.1694  -5.2574  -4.2183
    -3.0564  -1.8506  -0.4019   1.0671   2.5958   4.1165   5.4381   6.2068
     6.2709   6.5312

          k = 0.0000 0.2887 0.0000 (  5490 PWs)   bands (ev):

    -7.9148  -7.7267  -7.3936  -6.9210  -6.2982  -5.5338  -4.6304  -3.6027
    -2.4577  -1.2592   0.1490   1.5495   2.8795   3.6952   4.1980   4.3686
     4.8258   5.0408

          k = 0.0000 0.3608 0.0000 (  5482 PWs)   bands (ev):

    -7.0713  -6.8894  -6.5634  -6.0975  -5.4823  -4.7278  -3.8385  -2.8314
    -1.7188  -0.5401   0.7014   1.4958   1.7916   2.2584   2.7331   2.9481
     3.5464   3.8610

          k = 0.0000 0.4330 0.0000 (  5488 PWs)   bands (ev):

    -6.0531  -5.8808  -5.5654  -5.1090  -4.5059  -3.7690  -2.9078  -1.9481
    -0.9351  -0.1873  -0.1194   0.0694   0.5657   1.1151   1.5543   2.0794
     2.4858   3.1091

          k = 0.0000 0.5052 0.0000 (  5504 PWs)   bands (ev):

    -4.8993  -4.7240  -4.4246  -3.9834  -3.4057  -2.7176  -2.0304  -1.8248
    -1.6366  -1.3544  -1.0497  -0.8835  -0.2217   0.4896   0.9390   1.4986
     1.9087   2.5392

          k = 0.0000-0.5774 0.0000 (  5484 PWs)   bands (ev):

    -4.1328  -3.4292  -3.3998  -3.2135  -3.1211  -2.8401  -2.7257  -2.3458
    -2.0868  -1.7434  -1.4011  -1.1534  -0.4932   0.2644   0.7165   1.2536
     1.7932   2.4709

          k = 0.0625 0.1083 0.0000 (  5511 PWs)   bands (ev):

    -9.1448  -8.9500  -8.6083  -8.1272  -7.4951  -6.7192  -5.8010  -4.7540
    -3.5803  -2.3671  -0.9013   0.5939   2.1633   3.7578   5.2277   6.1262
     6.3837   6.7001

          k = 0.0625 0.1804 0.0000 (  5519 PWs)   bands (ev):

    -8.7651  -8.5721  -8.2328  -7.7542  -7.1248  -6.3522  -5.4382  -4.3961
    -3.2298  -2.0219  -0.5662   0.9134   2.4607   4.0231   5.4642   6.4222
     6.7371   6.9006

          k = 0.0625 0.2526 0.0000 (  5496 PWs)   bands (ev):

    -8.1975  -8.0077  -7.6724  -7.1977  -6.5726  -5.8052  -4.8979  -3.8649
    -2.7120  -1.5103  -0.0800   1.3616   2.8352   4.1871   5.0279   5.2928
     5.5855   5.8497

          k = 0.0625 0.3248 0.0000 (  5488 PWs)   bands (ev):

    -7.4453  -7.2604  -6.9310  -6.4621  -5.8433  -5.0840  -4.1878  -3.1701
    -2.0404  -0.8482   0.5057   1.7796   2.5854   3.0192   3.5043   3.6810
     4.1137   4.5066

          k = 0.0625 0.3969 0.0000 (  5490 PWs)   bands (ev):

    -6.5137  -6.3367  -6.0161  -5.5551  -4.9458  -4.1996  -3.3228  -2.3351
    -1.2563  -0.1306   0.6813   0.8081   1.1626   1.6764   2.2071   2.4835
     3.0558   3.4620

          k = 0.0625 0.4691 0.0000 (  5501 PWs)   bands (ev):

    -5.4182  -5.2509  -4.9434  -4.4941  -3.9012  -3.1813  -2.3532  -1.4729
    -0.9511  -0.8419  -0.5570  -0.4520   0.1649   0.8807   1.2660   1.6583
     2.3095   2.7865

          k = 0.0625 0.5413 0.0000 (  5499 PWs)   bands (ev):

    -4.3147  -4.0269  -3.7480  -3.3258  -2.7930  -2.6076  -2.4141  -2.1522
    -1.9119  -1.5790  -1.2509  -1.0215  -0.3572   0.3716   0.8628   1.3220
     1.9907   2.4205

          k = 0.1250 0.2165 0.0000 (  5513 PWs)   bands (ev):

    -8.2919  -8.1015  -7.7655  -7.2902  -6.6643  -5.8961  -4.9876  -3.9528
    -2.7974  -1.5948  -0.1582   1.2940   2.7954   4.2673   5.5151   6.2715
     6.4428   6.4706

          k = 0.1250 0.2887 0.0000 (  5487 PWs)   bands (ev):

    -7.6328  -7.4466  -7.1156  -6.6452  -6.0247  -5.2632  -4.3636  -3.3414
    -2.2045  -1.0083   0.3803   1.7573   3.0649   3.9075   4.3993   4.5982
     4.9492   5.1477

          k = 0.1250 0.3608 0.0000 (  5494 PWs)   bands (ev):

    -6.7918  -6.6121  -6.2886  -5.8251  -5.2125  -4.4616  -3.5774  -2.5771
    -1.4742  -0.2991   0.9197   1.7417   2.0399   2.4949   2.9540   3.1786
     3.7339   4.0114

          k = 0.1250 0.4330 0.0000 (  5496 PWs)   bands (ev):

    -5.7783  -5.6081  -5.2956  -4.8417  -4.2414  -3.5089  -2.6549  -1.7041
    -0.6996   0.0779   0.1309   0.3291   0.8183   1.3711   1.8092   2.2757
     2.7218   3.2540

          k = 0.1250 0.5052 0.0000 (  5491 PWs)   bands (ev):

    -4.6437  -4.4570  -4.1608  -3.7222  -3.1486  -2.4659  -1.7748  -1.5591
    -1.3693  -1.0878  -0.8024  -0.6200   0.0352   0.7363   1.1915   1.7246
     2.1401   2.7312

          k = 0.1250 0.5774 0.0000 (  5460 PWs)   bands (ev):

    -3.9379  -3.1548  -3.1274  -2.9402  -2.8534  -2.5700  -2.4601  -2.0752
    -1.8264  -1.4767  -1.1523  -0.8906  -0.2380   0.5193   0.9587   1.4952
     1.9984   2.6505

          k = 0.1875 0.3248 0.0000 (  5509 PWs)   bands (ev):

    -6.8848  -6.7043  -6.3799  -5.9155  -5.3019  -4.5495  -3.6629  -2.6588
    -1.5497  -0.3658   0.9193   2.1080   2.9045   3.2205   3.4674   3.7298
     3.8924   4.0497

          k = 0.1875 0.3969 0.0000 (  5493 PWs)   bands (ev):

    -5.9604  -5.7883  -5.4732  -5.0172  -4.4139  -3.6765  -2.8132  -1.8436
    -0.7896   0.3191   1.1624   1.3139   1.6420   2.1188   2.5161   2.6548
     2.8780   3.0753

          k = 0.1875 0.4691 0.0000 (  5470 PWs)   bands (ev):

    -4.8858  -4.7152  -4.4130  -3.9686  -3.3836  -2.6757  -1.8638  -0.9951
    -0.4199  -0.3154  -0.0646   0.0671   0.6649   1.3440   1.6962   2.0846
     2.2906   2.4750

          k = 0.1875 0.5413 0.0000 (  5454 PWs)   bands (ev):

    -3.8957  -3.4872  -3.2190  -2.8037  -2.2762  -2.0672  -1.8744  -1.6237
    -1.3889  -1.0484  -0.7596  -0.4981   0.1459   0.8517   1.3187   1.7038
     2.1172   2.2725

          k = 0.2500 0.4330 0.0000 (  5491 PWs)   bands (ev):

    -4.9705  -4.8020  -4.4984  -4.0524  -3.4643  -2.7506  -1.9255  -1.0154
    -0.0685   0.7348   0.8728   0.8841   0.9832   1.0901   1.3567   1.6843
     2.0563   2.2887

          k = 0.2500 0.5052 0.0000 (  5430 PWs)   bands (ev):

    -3.9543  -3.6589  -3.3784  -2.9505  -2.3928  -1.7302  -1.0299  -0.7710
    -0.5750  -0.3053  -0.0988   0.1526   0.6009   0.7142   0.7999   1.0724
     1.3298   1.7157

          k = 0.2500 0.5774 0.0000 (  5430 PWs)   bands (ev):

    -3.4620  -2.3370  -2.3156  -2.1254  -2.0573  -1.7684  -1.6673  -1.2730
    -1.0635  -0.6916  -0.4324  -0.1205   0.4279   0.5392   0.7120   1.0361
     1.1685   1.4281

          k = 0.3125 0.5413 0.0000 (  5411 PWs)   bands (ev):

    -3.3492  -2.4108  -2.1686  -1.7780  -1.2802  -1.0024  -0.9868  -0.8299
    -0.7790  -0.5828  -0.4316  -0.3313  -0.0855   0.0944   0.2412   0.4051
     0.6972   1.1620

     the Fermi energy is     1.8127 ev

!    total energy              =    -112.01900912 Ry
     Harris-Foulkes estimate   =    -112.01900793 Ry
     estimated scf accuracy    <       0.00000718 Ry

     The total energy is the sum of the following terms:

     one-electron contribution =   -1196.94006439 Ry
     hartree contribution      =     606.26888888 Ry
     xc contribution           =     -91.25717982 Ry
     ewald contribution        =     569.90897298 Ry
     smearing contrib. (-TS)   =       0.00037322 Ry

     convergence has been achieved in  24 iterations

     Forces acting on atoms (Ry/au):


     negative rho (up, down):  5.029E-05 0.000E+00
     atom    1 type  1   force =     0.00000000    0.00000000   -0.00065539
     atom    2 type  1   force =     0.00000000    0.00000000    0.00164925
     atom    3 type  1   force =     0.00000000    0.00000000   -0.00214906
     atom    4 type  1   force =     0.00000000    0.00000000   -0.00187464
     atom    5 type  1   force =     0.00000000    0.00000000    0.00190988
     atom    6 type  1   force =     0.00000000    0.00000000    0.00006206
     atom    7 type  1   force =     0.00000000   -0.00000000   -2.69448110
     atom    8 type  1   force =     0.00000000    0.00000000    0.01229781
     atom    9 type  1   force =     0.00000000    0.00000000   -0.00278889
     atom   10 type  2   force =     0.00000000    0.00000000    2.68603007

     Total force =     3.804623     Total SCF correction =     0.003386


     entering subroutine stress ...


     negative rho (up, down):  5.029E-05 0.000E+00
          total   stress  (Ry/bohr**3)                   (kbar)     P=   90.86
  -0.00002578  -0.00000000   0.00000000         -3.79     -0.00      0.00
  -0.00000000  -0.00002578   0.00000000         -0.00     -3.79      0.00
   0.00000000   0.00000000   0.00190443          0.00      0.00    280.15


     BFGS Geometry Optimization

     number of scf cycles    =   1
     number of bfgs steps    =   0

     energy   new            =    -112.0190091223 Ry

     new trust radius        =       0.5000000000 bohr
     new conv_thr            =       0.0000090000 Ry


ATOMIC_POSITIONS (crystal)
Al       0.333333300   0.666666600   0.111109561
Al       0.666666600   0.333333300   0.055559423
Al       0.000000000   0.000000000  -0.000005047
Al       0.333333300   0.666666600   0.277773364
Al       0.666666600   0.333333300   0.222226702
Al       0.000000000   0.000000000   0.166666812
Al       0.333333300   0.666666600   0.438116180
Al       0.666666600   0.333333300   0.388917766
Al       0.000000000   0.000000000   0.333326783
H        0.333333300   0.666666600   0.468752839



     Writing output data file Al_111_3_3.save
     NEW-OLD atomic charge density approx. for the potential

     negative rho (up, down):  7.124E-05 0.000E+00

     total cpu time spent up to now is      168.3 secs

     per-process dynamical memory:    97.9 Mb

     Self-consistent Calculation

     iteration #  1     ecut=    30.00 Ry     beta=0.30
     Davidson diagonalization with overlap
     c_bands:  1 eigenvalues not converged
     ethr =  1.00E-06,  avg # of iterations = 10.5

     negative rho (up, down):  7.800E-05 0.000E+00

     total cpu time spent up to now is      188.0 secs

     total energy              =    -113.20434121 Ry
     Harris-Foulkes estimate   =    -113.21432811 Ry
     estimated scf accuracy    <       0.24848590 Ry

     iteration #  2     ecut=    30.00 Ry     beta=0.30
     Davidson diagonalization with overlap
     ethr =  8.87E-04,  avg # of iterations =  1.0

     negative rho (up, down):  5.662E-03 0.000E+00

     total cpu time spent up to now is      195.2 secs

     total energy              =    -113.18885547 Ry
     Harris-Foulkes estimate   =    -113.20502896 Ry
     estimated scf accuracy    <       0.13562059 Ry

     iteration #  3     ecut=    30.00 Ry     beta=0.30
     Davidson diagonalization with overlap
     ethr =  4.84E-04,  avg # of iterations =  1.3

     negative rho (up, down):  5.722E-03 0.000E+00

     total cpu time spent up to now is      201.5 secs

     total energy              =    -113.19476221 Ry
     Harris-Foulkes estimate   =    -113.19475963 Ry
     estimated scf accuracy    <       0.01130310 Ry

     iteration #  4     ecut=    30.00 Ry     beta=0.30
     Davidson diagonalization with overlap
     ethr =  4.04E-05,  avg # of iterations =  2.2

     negative rho (up, down):  5.281E-03 0.000E+00

     total cpu time spent up to now is      207.9 secs

     total energy              =    -113.19492917 Ry
     Harris-Foulkes estimate   =    -113.19502004 Ry
     estimated scf accuracy    <       0.01486136 Ry

     iteration #  5     ecut=    30.00 Ry     beta=0.30
     Davidson diagonalization with overlap
     ethr =  4.04E-05,  avg # of iterations =  1.0

     negative rho (up, down):  4.890E-03 0.000E+00

     total cpu time spent up to now is      213.5 secs

     total energy              =    -113.19466644 Ry
     Harris-Foulkes estimate   =    -113.19495810 Ry
     estimated scf accuracy    <       0.01400541 Ry

     iteration #  6     ecut=    30.00 Ry     beta=0.30
     Davidson diagonalization with overlap
     ethr =  4.04E-05,  avg # of iterations =  1.5

     negative rho (up, down):  5.355E-03 0.000E+00

     total cpu time spent up to now is      219.3 secs

     total energy              =    -113.19464778 Ry
     Harris-Foulkes estimate   =    -113.19472842 Ry
     estimated scf accuracy    <       0.01202570 Ry

     iteration #  7     ecut=    30.00 Ry     beta=0.30
     Davidson diagonalization with overlap
     ethr =  4.04E-05,  avg # of iterations =  1.0

     negative rho (up, down):  5.086E-03 0.000E+00

     total cpu time spent up to now is      224.8 secs

     total energy              =    -113.19449332 Ry
     Harris-Foulkes estimate   =    -113.19467585 Ry
     estimated scf accuracy    <       0.01474973 Ry

     iteration #  8     ecut=    30.00 Ry     beta=0.30
     Davidson diagonalization with overlap
     ethr =  4.04E-05,  avg # of iterations =  1.8

     negative rho (up, down):  5.266E-03 0.000E+00

     total cpu time spent up to now is      230.8 secs

     total energy              =    -113.19444905 Ry
     Harris-Foulkes estimate   =    -113.19450975 Ry
     estimated scf accuracy    <       0.01280943 Ry

     iteration #  9     ecut=    30.00 Ry     beta=0.30
     Davidson diagonalization with overlap
     ethr =  4.04E-05,  avg # of iterations =  1.0

     negative rho (up, down):  3.502E-03 0.000E+00

     total cpu time spent up to now is      236.2 secs

     total energy              =    -113.19431788 Ry
     Harris-Foulkes estimate   =    -113.19445422 Ry
     estimated scf accuracy    <       0.01149336 Ry

     iteration # 10     ecut=    30.00 Ry     beta=0.30
     Davidson diagonalization with overlap
     ethr =  4.04E-05,  avg # of iterations =  1.9

     negative rho (up, down):  2.952E-03 0.000E+00

     total cpu time spent up to now is      242.2 secs

     total energy              =    -113.19413942 Ry
     Harris-Foulkes estimate   =    -113.19433945 Ry
     estimated scf accuracy    <       0.00660810 Ry

     iteration # 11     ecut=    30.00 Ry     beta=0.30
     Davidson diagonalization with overlap
     ethr =  2.36E-05,  avg # of iterations =  1.4

     negative rho (up, down):  2.140E-03 0.000E+00

     total cpu time spent up to now is      248.4 secs

     total energy              =    -113.19420001 Ry
     Harris-Foulkes estimate   =    -113.19416505 Ry
     estimated scf accuracy    <       0.00291945 Ry

     iteration # 12     ecut=    30.00 Ry     beta=0.30
     Davidson diagonalization with overlap
     ethr =  1.04E-05,  avg # of iterations =  2.4

     negative rho (up, down):  1.580E-03 0.000E+00

     total cpu time spent up to now is      254.5 secs

     total energy              =    -113.19417662 Ry
     Harris-Foulkes estimate   =    -113.19422245 Ry
     estimated scf accuracy    <       0.00081336 Ry

     iteration # 13     ecut=    30.00 Ry     beta=0.30
     Davidson diagonalization with overlap
     ethr =  2.90E-06,  avg # of iterations =  2.8

     negative rho (up, down):  1.347E-03 0.000E+00

     total cpu time spent up to now is      261.3 secs

     total energy              =    -113.19420957 Ry
     Harris-Foulkes estimate   =    -113.19420638 Ry
     estimated scf accuracy    <       0.00012157 Ry

     iteration # 14     ecut=    30.00 Ry     beta=0.30
     Davidson diagonalization with overlap
     ethr =  4.34E-07,  avg # of iterations =  2.1

     negative rho (up, down):  9.401E-04 0.000E+00

     total cpu time spent up to now is      268.0 secs

     total energy              =    -113.19421548 Ry
     Harris-Foulkes estimate   =    -113.19421230 Ry
     estimated scf accuracy    <       0.00005296 Ry

     iteration # 15     ecut=    30.00 Ry     beta=0.30
     Davidson diagonalization with overlap
     ethr =  1.89E-07,  avg # of iterations =  2.7

     negative rho (up, down):  7.026E-04 0.000E+00

     total cpu time spent up to now is      274.4 secs

     total energy              =    -113.19421150 Ry
     Harris-Foulkes estimate   =    -113.19421847 Ry
     estimated scf accuracy    <       0.00005932 Ry

     iteration # 16     ecut=    30.00 Ry     beta=0.30
     Davidson diagonalization with overlap
     ethr =  1.89E-07,  avg # of iterations =  2.3

     negative rho (up, down):  3.449E-05 0.000E+00

     total cpu time spent up to now is      279.7 secs

     End of self-consistent calculation

          k = 0.0000 0.0000 0.0000 (  5537 PWs)   bands (ev):

    -9.5977  -9.3545  -8.9814  -8.4375  -7.7383  -6.9148  -6.0071  -5.0260
    -3.8995  -2.6764  -1.1789   0.3499   1.9287   3.5099   4.9575   5.8440
     6.1075   6.6440

          k = 0.0000 0.0722 0.0000 (  5524 PWs)   bands (ev):

    -9.5027  -9.2592  -8.8864  -8.3430  -7.6444  -6.8220  -5.9160  -4.9365
    -3.8112  -2.5886  -1.0924   0.4333   2.0087   3.5874   5.0376   5.9346
     6.2006   6.7301

          k = 0.0000 0.1443 0.0000 (  5500 PWs)   bands (ev):

    -9.2179  -8.9738  -8.6019  -8.0597  -7.3632  -6.5442  -5.6435  -4.6692
    -3.5474  -2.3272  -0.8355   0.6809   2.2441   3.8109   5.2635   6.1978
     6.4753   6.9679

          k = 0.0000 0.2165 0.0000 (  5496 PWs)   bands (ev):

    -8.7446  -8.4994  -8.1290  -7.5891  -6.8962  -6.0833  -5.1925  -4.2275
    -3.1121  -1.8944  -0.4150   1.0790   2.6059   4.1105   5.4155   6.0703
     6.2474   6.4040

          k = 0.0000 0.2887 0.0000 (  5490 PWs)   bands (ev):

    -8.0851  -7.8380  -7.4698  -6.9334  -6.2461  -5.4433  -4.5690  -3.6187
    -2.5138  -1.2980   0.1458   1.5657   2.8529   3.6131   4.1206   4.2758
     4.7916   5.0058

          k = 0.0000 0.3608 0.0000 (  5482 PWs)   bands (ev):

    -7.2426  -6.9923  -6.6275  -6.0960  -5.4174  -4.6315  -3.7855  -2.8582
    -1.7716  -0.5681   0.6922   1.3628   1.7045   2.1962   2.7302   2.8507
     3.5069   3.9097

          k = 0.0000 0.4330 0.0000 (  5488 PWs)   bands (ev):

    -6.2224  -5.9664  -5.6063  -5.0827  -4.4197  -3.6679  -2.8762  -1.9889
    -0.9772  -0.3883  -0.1897  -0.0052   0.4878   1.0421   1.5529   2.0687
     2.4563   3.1789

          k = 0.0000 0.5052 0.0000 (  5504 PWs)   bands (ev):

    -5.0348  -4.7660  -4.4148  -3.9087  -3.2908  -2.6620  -2.1688  -1.8922
    -1.7458  -1.4813  -1.1181  -0.9703  -0.2650   0.4475   0.8747   1.5294
     1.8716   2.6160

          k = 0.0000-0.5774 0.0000 (  5484 PWs)   bands (ev):

    -3.8706  -3.5568  -3.4178  -3.3564  -3.0926  -3.0182  -2.7030  -2.4505
    -2.1144  -1.8198  -1.5100  -1.1851  -0.5568   0.2574   0.6293   1.3003
     1.7319   2.5394

          k = 0.0625 0.1083 0.0000 (  5511 PWs)   bands (ev):

    -9.3127  -9.0689  -8.6967  -8.1540  -7.4568  -6.6367  -5.7342  -4.7581
    -3.6350  -2.4141  -0.9207   0.5991   2.1669   3.7387   5.1921   6.1128
     6.3853   6.8963

          k = 0.0625 0.1804 0.0000 (  5519 PWs)   bands (ev):

    -8.9337  -8.6890  -8.3179  -7.7771  -7.0827  -6.2674  -5.3725  -4.4034
    -3.2854  -2.0668  -0.5816   0.9230   2.4691   4.0145   5.4504   6.4206
     6.7267   7.0421

          k = 0.0625 0.2526 0.0000 (  5496 PWs)   bands (ev):

    -8.3673  -8.1211  -7.7519  -7.2140  -6.5241  -5.7167  -4.8348  -3.8779
    -2.7682  -1.5515  -0.0878   1.3783   2.8460   4.1612   4.9492   5.2254
     5.4426   5.8450

          k = 0.0625 0.3248 0.0000 (  5488 PWs)   bands (ev):

    -7.6163  -7.3675  -7.0011  -6.4673  -5.7845  -4.9903  -4.1303  -3.1920
    -2.0956  -0.8818   0.5100   1.7678   2.4809   2.9388   3.4046   3.6975
     4.0204   4.4825

          k = 0.0625 0.3969 0.0000 (  5490 PWs)   bands (ev):

    -6.6847  -6.4317  -6.0692  -5.5416  -4.8704  -4.0999  -3.2790  -2.3698
    -1.3028  -0.1542   0.5101   0.7303   1.0945   1.6342   2.1227   2.4841
     3.0698   3.4228

          k = 0.0625 0.4691 0.0000 (  5501 PWs)   bands (ev):

    -5.5794  -5.3180  -4.9620  -4.4456  -3.7985  -3.0857  -2.3500  -1.5348
    -1.1159  -0.9547  -0.6636  -0.5015   0.0885   0.8302   1.2253   1.6475
     2.3688   2.7507

          k = 0.0625 0.5413 0.0000 (  5499 PWs)   bands (ev):

    -4.3243  -4.0369  -3.6993  -3.2360  -2.8739  -2.6582  -2.5320  -2.2270
    -1.9710  -1.6741  -1.3451  -1.0804  -0.3962   0.3052   0.8780   1.2499
     2.0527   2.3843

          k = 0.1250 0.2165 0.0000 (  5513 PWs)   bands (ev):

    -8.4615  -8.2156  -7.8461  -7.3076  -6.6170  -5.8082  -4.9239  -3.9647
    -2.8536  -1.6367  -0.1674   1.3100   2.8099   4.2710   5.5040   6.1665
     6.3155   6.3784

          k = 0.1250 0.2887 0.0000 (  5487 PWs)   bands (ev):

    -7.8035  -7.5555  -7.1884  -6.6535  -5.9688  -5.1707  -4.3044  -3.3609
    -2.2604  -1.0443   0.3826   1.7789   3.0499   3.8286   4.3052   4.5144
     4.9306   5.0116

          k = 0.1250 0.3608 0.0000 (  5494 PWs)   bands (ev):

    -6.9632  -6.7116  -6.3479  -5.8182  -5.1429  -4.3636  -3.5281  -2.6078
    -1.5254  -0.3226   0.9187   1.6147   1.9553   2.4349   2.9408   3.0697
     3.7065   3.9848

          k = 0.1250 0.4330 0.0000 (  5496 PWs)   bands (ev):

    -5.9457  -5.6879  -5.3292  -4.8080  -4.1497  -3.4088  -2.6313  -1.7481
    -0.7377  -0.1266   0.0727   0.2513   0.7396   1.2981   1.8109   2.2468
     2.6951   3.2862

          k = 0.1250 0.5052 0.0000 (  5491 PWs)   bands (ev):

    -4.7625  -4.4903  -4.1414  -3.6400  -3.0339  -2.4251  -1.9087  -1.6334
    -1.4872  -1.2143  -0.8718  -0.7081  -0.0083   0.6931   1.1285   1.7514
     2.1031   2.7883

          k = 0.1250 0.5774 0.0000 (  5460 PWs)   bands (ev):

    -3.6190  -3.2825  -3.1461  -3.0829  -2.8277  -2.7484  -2.4498  -2.1803
    -1.8718  -1.5540  -1.2731  -0.9228  -0.3012   0.5109   0.8741   1.5386
     1.9421   2.7018

          k = 0.1875 0.3248 0.0000 (  5509 PWs)   bands (ev):

    -7.0562  -6.8051  -6.4410  -5.9107  -5.2341  -4.4520  -3.6121  -2.6883
    -1.6020  -0.3913   0.9359   2.0993   2.7978   3.1085   3.3533   3.6278
     3.8213   3.8797

          k = 0.1875 0.3969 0.0000 (  5493 PWs)   bands (ev):

    -6.1296  -5.8733  -5.5134  -4.9901  -4.3275  -3.5760  -2.7824  -1.8859
    -0.8285   0.3071   1.0121   1.2382   1.5702   2.0412   2.4152   2.5198
     2.8109   2.9838

          k = 0.1875 0.4691 0.0000 (  5470 PWs)   bands (ev):

    -5.0315  -4.7647  -4.4121  -3.9027  -3.2722  -2.5951  -1.8846  -1.0556
    -0.5945  -0.4220  -0.1455  -0.0042   0.5867   1.3023   1.6257   2.0436
     2.1365   2.3910

          k = 0.1875 0.5413 0.0000 (  5454 PWs)   bands (ev):

    -3.7937  -3.4914  -3.1635  -2.7261  -2.3617  -2.1404  -1.9989  -1.7000
    -1.4854  -1.1448  -0.8700  -0.5566   0.1057   0.7888   1.3118   1.6355
     1.9654   2.2223

          k = 0.2500 0.4330 0.0000 (  5491 PWs)   bands (ev):

    -5.1218  -4.8565  -4.5031  -3.9916  -3.3555  -2.6644  -1.9370  -1.0650
    -0.0958   0.5598   0.7260   0.8260   0.8802   0.9637   1.2312   1.5729
     1.9290   2.2190

          k = 0.2500 0.5052 0.0000 (  5430 PWs)   bands (ev):

    -3.9573  -3.6688  -3.3301  -2.8518  -2.3079  -1.7608  -1.1472  -0.8799
    -0.7118  -0.4252  -0.1722   0.0555   0.4338   0.6045   0.7254   0.9427
     1.2696   1.6515

          k = 0.2500 0.5774 0.0000 (  5430 PWs)   bands (ev):

    -2.9195  -2.4648  -2.3415  -2.2676  -2.0612  -1.9455  -1.7191  -1.3850
    -1.1746  -0.7755  -0.5739  -0.1611   0.3108   0.4188   0.5805   0.8956
     1.1294   1.3599

          k = 0.3125 0.5413 0.0000 (  5411 PWs)   bands (ev):

    -2.8252  -2.4261  -2.1644  -1.8442  -1.4241  -1.1269  -1.1113  -0.9773
    -0.9108  -0.7049  -0.5864  -0.4699  -0.1781   0.0075   0.0838   0.3367
     0.6195   1.1604

     the Fermi energy is     1.7740 ev

!    total energy              =    -113.19420342 Ry
     Harris-Foulkes estimate   =    -113.19421275 Ry
     estimated scf accuracy    <       0.00000400 Ry

     The total energy is the sum of the following terms:

     one-electron contribution =   -1207.13866269 Ry
     hartree contribution      =     611.14723233 Ry
     xc contribution           =     -91.06678194 Ry
     ewald contribution        =     573.86403957 Ry
     smearing contrib. (-TS)   =      -0.00003069 Ry

     convergence has been achieved in  16 iterations

     Forces acting on atoms (Ry/au):


     negative rho (up, down):  3.449E-05 0.000E+00
     atom    1 type  1   force =     0.00000000    0.00000000   -0.00068561
     atom    2 type  1   force =     0.00000000    0.00000000    0.00171238
     atom    3 type  1   force =    -0.00000000   -0.00000000   -0.00228522
     atom    4 type  1   force =     0.00000000    0.00000000   -0.00038455
     atom    5 type  1   force =     0.00000000    0.00000000    0.00147052
     atom    6 type  1   force =    -0.00000000   -0.00000000    0.00022666
     atom    7 type  1   force =     0.00000000    0.00000000   -0.26871344
     atom    8 type  1   force =     0.00000000    0.00000000   -0.02589277
     atom    9 type  1   force =    -0.00000000   -0.00000000   -0.00369703
     atom   10 type  2   force =     0.00000000   -0.00000000    0.29824906

     Total force =     0.402311     Total SCF correction =     0.003037


     entering subroutine stress ...


     negative rho (up, down):  3.449E-05 0.000E+00
          total   stress  (Ry/bohr**3)                   (kbar)     P=   22.15
   0.00001522   0.00000000   0.00000000          2.24      0.00      0.00
   0.00000000   0.00001522  -0.00000000          0.00      2.24     -0.00
   0.00000000   0.00000000   0.00042128          0.00      0.00     61.97


     number of scf cycles    =   2
     number of bfgs steps    =   1

     energy   old            =    -112.0190091223 Ry
     energy   new            =    -113.1942034222 Ry

     CASE: energy  _new < energy  _old

     new trust radius        =       0.0760682503 bohr
     new conv_thr            =       0.0000090000 Ry


ATOMIC_POSITIONS (crystal)
Al       0.333333300   0.666666600   0.111100656
Al       0.666666600   0.333333300   0.055581649
Al      -0.000000000  -0.000000000  -0.000034770
Al       0.333333300   0.666666600   0.277770197
Al       0.666666600   0.333333300   0.222245190
Al      -0.000000000  -0.000000000   0.166669944
Al       0.333333300   0.666666600   0.437581501
Al       0.666666600   0.333333300   0.388536557
Al      -0.000000000  -0.000000000   0.333277864
H        0.333333300   0.666666600   0.469715597



     Writing output data file Al_111_3_3.save
     NEW-OLD atomic charge density approx. for the potential

     negative rho (up, down):  5.823E-05 0.000E+00

     total cpu time spent up to now is      284.7 secs

     per-process dynamical memory:    97.9 Mb

     Self-consistent Calculation

     iteration #  1     ecut=    30.00 Ry     beta=0.30
     Davidson diagonalization with overlap
     ethr =  1.00E-06,  avg # of iterations =  5.4

     negative rho (up, down):  3.040E-05 0.000E+00

     total cpu time spent up to now is      299.1 secs

     total energy              =    -113.22382302 Ry
     Harris-Foulkes estimate   =    -113.22420256 Ry
     estimated scf accuracy    <       0.01156282 Ry

     iteration #  2     ecut=    30.00 Ry     beta=0.30
     Davidson diagonalization with overlap
     ethr =  4.13E-05,  avg # of iterations =  1.0

     negative rho (up, down):  1.295E-04 0.000E+00

     total cpu time spent up to now is      305.1 secs

     total energy              =    -113.22306885 Ry
     Harris-Foulkes estimate   =    -113.22385414 Ry
     estimated scf accuracy    <       0.00659091 Ry

     iteration #  3     ecut=    30.00 Ry     beta=0.30
     Davidson diagonalization with overlap
     ethr =  2.35E-05,  avg # of iterations =  2.1

     negative rho (up, down):  1.134E-04 0.000E+00

     total cpu time spent up to now is      312.9 secs

     total energy              =    -113.22343750 Ry
     Harris-Foulkes estimate   =    -113.22343846 Ry
     estimated scf accuracy    <       0.00045202 Ry

     iteration #  4     ecut=    30.00 Ry     beta=0.30
     Davidson diagonalization with overlap
     ethr =  1.61E-06,  avg # of iterations =  3.4

     negative rho (up, down):  1.072E-04 0.000E+00

     total cpu time spent up to now is      320.0 secs

     total energy              =    -113.22344903 Ry
     Harris-Foulkes estimate   =    -113.22344913 Ry
     estimated scf accuracy    <       0.00047953 Ry

     iteration #  5     ecut=    30.00 Ry     beta=0.30
     Davidson diagonalization with overlap
     ethr =  1.61E-06,  avg # of iterations =  1.0

     negative rho (up, down):  3.839E-05 0.000E+00

     total cpu time spent up to now is      327.8 secs

     total energy              =    -113.22344262 Ry
     Harris-Foulkes estimate   =    -113.22344997 Ry
     estimated scf accuracy    <       0.00049791 Ry

     iteration #  6     ecut=    30.00 Ry     beta=0.30
     Davidson diagonalization with overlap
     ethr =  1.61E-06,  avg # of iterations =  1.2

     negative rho (up, down):  5.240E-04 0.000E+00

     total cpu time spent up to now is      335.1 secs

     total energy              =    -113.22349819 Ry
     Harris-Foulkes estimate   =    -113.22344559 Ry
     estimated scf accuracy    <       0.00026852 Ry

     iteration #  7     ecut=    30.00 Ry     beta=0.30
     Davidson diagonalization with overlap
     ethr =  9.59E-07,  avg # of iterations =  3.7

     negative rho (up, down):  5.571E-04 0.000E+00

     total cpu time spent up to now is      345.2 secs

     total energy              =    -113.22367118 Ry
     Harris-Foulkes estimate   =    -113.22362289 Ry
     estimated scf accuracy    <       0.00563271 Ry

     iteration #  8     ecut=    30.00 Ry     beta=0.30
     Davidson diagonalization with overlap
     ethr =  9.59E-07,  avg # of iterations =  1.0

     negative rho (up, down):  5.723E-04 0.000E+00

     total cpu time spent up to now is      351.0 secs

     total energy              =    -113.22370839 Ry
     Harris-Foulkes estimate   =    -113.22367352 Ry
     estimated scf accuracy    <       0.00679469 Ry

     iteration #  9     ecut=    30.00 Ry     beta=0.30
     Davidson diagonalization with overlap
     ethr =  9.59E-07,  avg # of iterations =  1.0

     negative rho (up, down):  5.865E-04 0.000E+00

     total cpu time spent up to now is      356.7 secs

     total energy              =    -113.22371419 Ry
     Harris-Foulkes estimate   =    -113.22370986 Ry
     estimated scf accuracy    <       0.00764211 Ry

     iteration # 10     ecut=    30.00 Ry     beta=0.30
     Davidson diagonalization with overlap
     ethr =  9.59E-07,  avg # of iterations =  1.0

     negative rho (up, down):  4.892E-04 0.000E+00

     total cpu time spent up to now is      362.5 secs

     total energy              =    -113.22363937 Ry
     Harris-Foulkes estimate   =    -113.22371464 Ry
     estimated scf accuracy    <       0.00780796 Ry

     iteration # 11     ecut=    30.00 Ry     beta=0.30
     Davidson diagonalization with overlap
     ethr =  9.59E-07,  avg # of iterations =  1.0

     negative rho (up, down):  8.714E-04 0.000E+00

     total cpu time spent up to now is      368.5 secs

     total energy              =    -113.22354753 Ry
     Harris-Foulkes estimate   =    -113.22364236 Ry
     estimated scf accuracy    <       0.00647681 Ry

     iteration # 12     ecut=    30.00 Ry     beta=0.30
     Davidson diagonalization with overlap
     ethr =  9.59E-07,  avg # of iterations =  2.3

     negative rho (up, down):  9.573E-04 0.000E+00

     total cpu time spent up to now is      374.8 secs

     total energy              =    -113.22350067 Ry
     Harris-Foulkes estimate   =    -113.22356740 Ry
     estimated scf accuracy    <       0.00320038 Ry

     iteration # 13     ecut=    30.00 Ry     beta=0.30
     Davidson diagonalization with overlap
     ethr =  9.59E-07,  avg # of iterations =  1.6

     negative rho (up, down):  3.642E-04 0.000E+00

     total cpu time spent up to now is      381.1 secs

     total energy              =    -113.22336067 Ry
     Harris-Foulkes estimate   =    -113.22351122 Ry
     estimated scf accuracy    <       0.00155496 Ry

     iteration # 14     ecut=    30.00 Ry     beta=0.30
     Davidson diagonalization with overlap
     ethr =  9.59E-07,  avg # of iterations =  3.6

     negative rho (up, down):  3.758E-04 0.000E+00

     total cpu time spent up to now is      388.9 secs

     total energy              =    -113.22343141 Ry
     Harris-Foulkes estimate   =    -113.22343174 Ry
     estimated scf accuracy    <       0.00001841 Ry

     iteration # 15     ecut=    30.00 Ry     beta=0.30
     Davidson diagonalization with overlap
     ethr =  6.58E-08,  avg # of iterations =  1.5

     negative rho (up, down):  3.255E-04 0.000E+00

     total cpu time spent up to now is      395.6 secs

     total energy              =    -113.22343095 Ry
     Harris-Foulkes estimate   =    -113.22343187 Ry
     estimated scf accuracy    <       0.00001510 Ry

     iteration # 16     ecut=    30.00 Ry     beta=0.30
     Davidson diagonalization with overlap
     ethr =  5.39E-08,  avg # of iterations =  1.2

     negative rho (up, down):  3.253E-05 0.000E+00

     total cpu time spent up to now is      400.6 secs

     End of self-consistent calculation

          k = 0.0000 0.0000 0.0000 (  5537 PWs)   bands (ev):

    -9.6354  -9.3815  -9.0059  -8.4584  -7.7571  -6.9266  -6.0044  -5.0196
    -3.9081  -2.6967  -1.1985   0.3247   1.8932   3.4675   4.9211   5.8890
     6.2488   6.7082

          k = 0.0000 0.0722 0.0000 (  5524 PWs)   bands (ev):

    -9.5402  -9.2862  -8.9109  -8.3638  -7.6630  -6.8336  -5.9129  -4.9300
    -3.8198  -2.6090  -1.1119   0.4082   1.9734   3.5455   5.0015   5.9772
     6.3434   6.7951

          k = 0.0000 0.1443 0.0000 (  5500 PWs)   bands (ev):

    -9.2552  -9.0007  -8.6263  -8.0804  -7.3815  -6.5551  -5.6395  -4.6623
    -3.5561  -2.3475  -0.8548   0.6560   2.2094   3.7705   5.2285   6.2302
     6.6233   7.0340

          k = 0.0000 0.2165 0.0000 (  5496 PWs)   bands (ev):

    -8.7816  -8.5262  -8.1532  -7.6095  -6.9140  -6.0930  -5.1867  -4.2199
    -3.1210  -1.9148  -0.4338   1.0547   2.5730   4.0752   5.3842   6.0264
     6.2192   6.3741

          k = 0.0000 0.2887 0.0000 (  5490 PWs)   bands (ev):

    -8.1215  -7.8646  -7.4938  -6.9534  -6.2629  -5.4508  -4.5601  -3.6104
    -2.5231  -1.3181   0.1280   1.5424   2.8242   3.5804   4.0833   4.2478
     4.7655   4.9679

          k = 0.0000 0.3608 0.0000 (  5482 PWs)   bands (ev):

    -7.2780  -7.0185  -6.6509  -6.1151  -5.4324  -4.6348  -3.7714  -2.8494
    -1.7818  -0.5872   0.6748   1.3276   1.6756   2.1689   2.7016   2.8233
     3.4789   3.8831

          k = 0.0000 0.4330 0.0000 (  5488 PWs)   bands (ev):

    -6.2556  -5.9920  -5.6288  -5.1001  -4.4307  -3.6619  -2.8532  -1.9818
    -0.9884  -0.4309  -0.2168  -0.0311   0.4615   1.0147   1.5260   2.0480
     2.4257   3.1591

          k = 0.0000 0.5052 0.0000 (  5504 PWs)   bands (ev):

    -5.0626  -4.7902  -4.4347  -3.9206  -3.2865  -2.6265  -2.1951  -1.9086
    -1.7625  -1.5093  -1.1348  -0.9951  -0.2908   0.4223   0.8436   1.5077
     1.8407   2.6014

          k = 0.0000-0.5774 0.0000 (  5484 PWs)   bands (ev):

    -3.8462  -3.6016  -3.4389  -3.3885  -3.1036  -3.0460  -2.6998  -2.4744
    -2.1017  -1.8470  -1.5011  -1.2168  -0.5816   0.2302   0.6008   1.2790
     1.7009   2.5232

          k = 0.0625 0.1083 0.0000 (  5511 PWs)   bands (ev):

    -9.3502  -9.0958  -8.7211  -8.1748  -7.4753  -6.6478  -5.7305  -4.7513
    -3.6437  -2.4345  -0.9401   0.5742   2.1320   3.6977   5.1566   6.1495
     6.5312   6.9629

          k = 0.0625 0.1804 0.0000 (  5519 PWs)   bands (ev):

    -8.9709  -8.7159  -8.3423  -7.7976  -7.1008  -6.2776  -5.3674  -4.3962
    -3.2941  -2.0872  -0.6006   0.8985   2.4353   3.9765   5.4177   6.4320
     6.8724   7.0579

          k = 0.0625 0.2526 0.0000 (  5496 PWs)   bands (ev):

    -8.4040  -8.1478  -7.7760  -7.2341  -6.5414  -5.7252  -4.8274  -3.8699
    -2.7773  -1.5718  -0.1061   1.3545   2.8154   4.1308   4.9125   5.1894
     5.4078   5.8207

          k = 0.0625 0.3248 0.0000 (  5488 PWs)   bands (ev):

    -7.6521  -7.3939  -7.0248  -6.4869  -5.8005  -4.9958  -4.1188  -3.1833
    -2.1053  -0.9017   0.4931   1.7440   2.4479   2.9085   3.3749   3.6694
     3.9866   4.4552

          k = 0.0625 0.3969 0.0000 (  5490 PWs)   bands (ev):

    -6.7190  -6.4576  -6.0922  -5.5600  -4.8836  -4.0992  -3.2606  -2.3614
    -1.3137  -0.1717   0.4714   0.7027   1.0678   1.6088   2.0962   2.4567
     3.0452   3.3924

          k = 0.0625 0.4691 0.0000 (  5501 PWs)   bands (ev):

    -5.6105  -5.3430  -4.9835  -4.4610  -3.8045  -3.0686  -2.3220  -1.5376
    -1.1567  -0.9816  -0.6918  -0.5245   0.0631   0.8028   1.1997   1.6172
     2.3517   2.7211

          k = 0.0625 0.5413 0.0000 (  5499 PWs)   bands (ev):

    -4.3430  -4.0591  -3.7142  -3.2322  -2.8879  -2.6690  -2.5553  -2.2467
    -1.9636  -1.7005  -1.3464  -1.1098  -0.4221   0.2774   0.8538   1.2189
     2.0345   2.3549

          k = 0.1250 0.2165 0.0000 (  5513 PWs)   bands (ev):

    -8.4983  -8.2423  -7.8702  -7.3279  -6.6345  -5.8171  -4.9169  -3.9569
    -2.8626  -1.6570  -0.1858   1.2860   2.7784   4.2389   5.4743   6.1270
     6.2677   6.3476

          k = 0.1250 0.2887 0.0000 (  5487 PWs)   bands (ev):

    -7.8396  -7.5819  -7.2122  -6.6732  -5.9851  -5.1771  -4.2941  -3.3524
    -2.2699  -1.0644   0.3652   1.7563   3.0226   3.7956   4.2688   4.4858
     4.8960   4.9834

          k = 0.1250 0.3608 0.0000 (  5494 PWs)   bands (ev):

    -6.9981  -6.7377  -6.3712  -5.8370  -5.1572  -4.3653  -3.5122  -2.5992
    -1.5360  -0.3416   0.9020   1.5797   1.9262   2.4072   2.9119   3.0418
     3.6778   3.9567

          k = 0.1250 0.4330 0.0000 (  5496 PWs)   bands (ev):

    -5.9782  -5.7133  -5.3514  -4.8248  -4.1593  -3.3997  -2.6066  -1.7425
    -0.7498  -0.1689   0.0456   0.2250   0.7132   1.2707   1.7841   2.2252
     2.6642   3.2639

          k = 0.1250 0.5052 0.0000 (  5491 PWs)   bands (ev):

    -4.7888  -4.5141  -4.1606  -3.6503  -3.0254  -2.3863  -1.9341  -1.6502
    -1.5079  -1.2425  -0.8904  -0.7338  -0.0343   0.6676   1.0973   1.7297
     2.0721   2.7706

          k = 0.1250 0.5774 0.0000 (  5460 PWs)   bands (ev):

    -3.5870  -3.3273  -3.1669  -3.1149  -2.8366  -2.7761  -2.4448  -2.2039
    -1.8592  -1.5815  -1.2698  -0.9546  -0.3269   0.4834   0.8452   1.5169
     1.9116   2.6828

          k = 0.1875 0.3248 0.0000 (  5509 PWs)   bands (ev):

    -7.0912  -6.8312  -6.4643  -5.9296  -5.2487  -4.4544  -3.5969  -2.6797
    -1.6125  -0.4106   0.9203   2.0771   2.7640   3.0711   3.3202   3.5967
     3.7881   3.8519

          k = 0.1875 0.3969 0.0000 (  5493 PWs)   bands (ev):

    -6.1627  -5.8989  -5.5359  -5.0075  -4.3384  -3.5701  -2.7598  -1.8793
    -0.8408   0.2903   0.9756   1.2098   1.5428   2.0120   2.3800   2.4889
     2.7814   2.9548

          k = 0.1875 0.4691 0.0000 (  5470 PWs)   bands (ev):

    -5.0603  -4.7892  -4.4326  -3.9160  -3.2727  -2.5684  -1.8582  -1.0625
    -0.6372  -0.4490  -0.1741  -0.0289   0.5610   1.2753   1.5985   2.0104
     2.0989   2.3620

          k = 0.1875 0.5413 0.0000 (  5454 PWs)   bands (ev):

    -3.8050  -3.5123  -3.1745  -2.7119  -2.3666  -2.1540  -2.0240  -1.7173
    -1.4848  -1.1718  -0.8813  -0.5862   0.0787   0.7602   1.2858   1.6052
     1.9239   2.1922

          k = 0.2500 0.4330 0.0000 (  5491 PWs)   bands (ev):

    -5.1513  -4.8812  -4.5239  -4.0056  -3.3580  -2.6413  -1.9100  -1.0671
    -0.1108   0.5239   0.6782   0.7951   0.8514   0.9336   1.2022   1.5453
     1.9017   2.1906

          k = 0.2500 0.5052 0.0000 (  5430 PWs)   bands (ev):

    -3.9759  -3.6911  -3.3457  -2.8527  -2.2770  -1.7226  -1.1709  -0.9069
    -0.7413  -0.4538  -0.1979   0.0287   0.3873   0.5761   0.6970   0.9136
     1.2432   1.6250

          k = 0.2500 0.5774 0.0000 (  5430 PWs)   bands (ev):

    -2.8472  -2.5098  -2.3604  -2.2995  -2.0602  -1.9741  -1.7145  -1.4080
    -1.1741  -0.8044  -0.5896  -0.1932   0.2683   0.3873   0.5502   0.8660
     1.1005   1.3334

          k = 0.3125 0.5413 0.0000 (  5411 PWs)   bands (ev):

    -2.7833  -2.4399  -2.1504  -1.8173  -1.4398  -1.1715  -1.1441  -1.0070
    -0.9409  -0.7283  -0.6158  -0.4945  -0.2082  -0.0196   0.0573   0.3057
     0.5919   1.1325

     the Fermi energy is     1.7465 ev

!    total energy              =    -113.22342253 Ry
     Harris-Foulkes estimate   =    -113.22343107 Ry
     estimated scf accuracy    <       0.00000687 Ry

     The total energy is the sum of the following terms:

     one-electron contribution =   -1208.37641503 Ry
     hartree contribution      =     611.79793542 Ry
     xc contribution           =     -91.04578462 Ry
     ewald contribution        =     574.40091195 Ry
     smearing contrib. (-TS)   =      -0.00007026 Ry

     convergence has been achieved in  16 iterations

     Forces acting on atoms (Ry/au):


     negative rho (up, down):  3.253E-05 0.000E+00
     atom    1 type  1   force =     0.00000000    0.00000000   -0.00043195
     atom    2 type  1   force =     0.00000000    0.00000000    0.00139406
     atom    3 type  1   force =     0.00000000    0.00000000   -0.00206591
     atom    4 type  1   force =     0.00000000    0.00000000   -0.00044324
     atom    5 type  1   force =     0.00000000    0.00000000    0.00139695
     atom    6 type  1   force =     0.00000000    0.00000000    0.00024771
     atom    7 type  1   force =     0.00000000   -0.00000000   -0.17596067
     atom    8 type  1   force =     0.00000000    0.00000000   -0.02638531
     atom    9 type  1   force =     0.00000000    0.00000000   -0.00488609
     atom   10 type  2   force =     0.00000000    0.00000000    0.20713446

     Total force =     0.273122     Total SCF correction =     0.004784


     entering subroutine stress ...


     negative rho (up, down):  3.253E-05 0.000E+00
          total   stress  (Ry/bohr**3)                   (kbar)     P=   17.81
   0.00001758   0.00000000  -0.00000000          2.59      0.00     -0.00
   0.00000000   0.00001758   0.00000000          0.00      2.59      0.00
   0.00000000   0.00000000   0.00032813          0.00      0.00     48.27


     number of scf cycles    =   3
     number of bfgs steps    =   2

     energy   old            =    -113.1942034222 Ry
     energy   new            =    -113.2234225317 Ry

     CASE: energy  _new < energy  _old

     new trust radius        =       0.0836750754 bohr
     new conv_thr            =       0.0000090000 Ry


ATOMIC_POSITIONS (crystal)
Al       0.333333300   0.666666600   0.111092395
Al       0.666666600   0.333333300   0.055608011
Al      -0.000000000  -0.000000000  -0.000073759
Al       0.333333300   0.666666600   0.277763712
Al       0.666666600   0.333333300   0.222270877
Al      -0.000000000  -0.000000000   0.166674772
Al       0.333333300   0.666666600   0.437151423
Al       0.666666600   0.333333300   0.387996496
Al      -0.000000000  -0.000000000   0.333185826
H        0.333333300   0.666666600   0.470774631



     Writing output data file Al_111_3_3.save
     NEW-OLD atomic charge density approx. for the potential

     negative rho (up, down):  6.288E-05 0.000E+00

     total cpu time spent up to now is      405.5 secs

     per-process dynamical memory:    97.9 Mb

     Self-consistent Calculation

     iteration #  1     ecut=    30.00 Ry     beta=0.30
     Davidson diagonalization with overlap
     ethr =  1.00E-06,  avg # of iterations =  5.6

     negative rho (up, down):  5.659E-05 0.000E+00

     total cpu time spent up to now is      420.1 secs

     total energy              =    -113.24396222 Ry
     Harris-Foulkes estimate   =    -113.24434125 Ry
     estimated scf accuracy    <       0.02355437 Ry

     iteration #  2     ecut=    30.00 Ry     beta=0.30
     Davidson diagonalization with overlap
     ethr =  8.41E-05,  avg # of iterations =  1.0

     negative rho (up, down):  2.923E-04 0.000E+00

     total cpu time spent up to now is      426.0 secs

     total energy              =    -113.24328680 Ry
     Harris-Foulkes estimate   =    -113.24399502 Ry
     estimated scf accuracy    <       0.01242767 Ry

     iteration #  3     ecut=    30.00 Ry     beta=0.30
     Davidson diagonalization with overlap
     ethr =  4.44E-05,  avg # of iterations =  1.6

     negative rho (up, down):  6.748E-04 0.000E+00

     total cpu time spent up to now is      432.4 secs

     total energy              =    -113.24358784 Ry
     Harris-Foulkes estimate   =    -113.24356399 Ry
     estimated scf accuracy    <       0.00103919 Ry

     iteration #  4     ecut=    30.00 Ry     beta=0.30
     Davidson diagonalization with overlap
     ethr =  3.71E-06,  avg # of iterations =  4.7

     negative rho (up, down):  7.839E-04 0.000E+00

     total cpu time spent up to now is      439.4 secs

     total energy              =    -113.24361143 Ry
     Harris-Foulkes estimate   =    -113.24367618 Ry
     estimated scf accuracy    <       0.01139096 Ry

     iteration #  5     ecut=    30.00 Ry     beta=0.30
     Davidson diagonalization with overlap
     ethr =  3.71E-06,  avg # of iterations =  1.4

     negative rho (up, down):  1.183E-03 0.000E+00

     total cpu time spent up to now is      445.4 secs

     total energy              =    -113.24345018 Ry
     Harris-Foulkes estimate   =    -113.24361939 Ry
     estimated scf accuracy    <       0.00801863 Ry

     iteration #  6     ecut=    30.00 Ry     beta=0.30
     Davidson diagonalization with overlap
     ethr =  3.71E-06,  avg # of iterations =  3.0

     negative rho (up, down):  1.008E-03 0.000E+00

     total cpu time spent up to now is      451.6 secs

     total energy              =    -113.24354485 Ry
     Harris-Foulkes estimate   =    -113.24354897 Ry
     estimated scf accuracy    <       0.00017368 Ry

     iteration #  7     ecut=    30.00 Ry     beta=0.30
     Davidson diagonalization with overlap
     ethr =  6.20E-07,  avg # of iterations =  1.4

     negative rho (up, down):  9.057E-04 0.000E+00

     total cpu time spent up to now is      457.7 secs

     total energy              =    -113.24353826 Ry
     Harris-Foulkes estimate   =    -113.24354727 Ry
     estimated scf accuracy    <       0.00011909 Ry

     iteration #  8     ecut=    30.00 Ry     beta=0.30
     Davidson diagonalization with overlap
     ethr =  4.25E-07,  avg # of iterations =  2.2

     negative rho (up, down):  9.170E-04 0.000E+00

     total cpu time spent up to now is      463.7 secs

     total energy              =    -113.24354177 Ry
     Harris-Foulkes estimate   =    -113.24354139 Ry
     estimated scf accuracy    <       0.00004889 Ry

     iteration #  9     ecut=    30.00 Ry     beta=0.30
     Davidson diagonalization with overlap
     ethr =  1.75E-07,  avg # of iterations =  1.0

     negative rho (up, down):  6.730E-04 0.000E+00

     total cpu time spent up to now is      469.5 secs

     total energy              =    -113.24353549 Ry
     Harris-Foulkes estimate   =    -113.24354250 Ry
     estimated scf accuracy    <       0.00008418 Ry

     iteration # 10     ecut=    30.00 Ry     beta=0.30
     Davidson diagonalization with overlap
     ethr =  1.75E-07,  avg # of iterations =  1.7

     negative rho (up, down):  3.037E-05 0.000E+00

     total cpu time spent up to now is      474.7 secs

     End of self-consistent calculation

          k = 0.0000 0.0000 0.0000 (  5537 PWs)   bands (ev):

    -9.6456  -9.3832  -9.0053  -8.4549  -7.7539  -6.9194  -5.9823  -4.9867
    -3.8897  -2.6933  -1.1949   0.3193   1.8738   3.4405   4.8977   5.8444
     6.1557   6.6735

          k = 0.0000 0.0722 0.0000 (  5524 PWs)   bands (ev):

    -9.5504  -9.2879  -8.9103  -8.3602  -7.6598  -6.8262  -5.8905  -4.8969
    -3.8014  -2.6056  -1.1083   0.4029   1.9542   3.5189   4.9784   5.9337
     6.2497   6.7630

          k = 0.0000 0.1443 0.0000 (  5500 PWs)   bands (ev):

    -9.2652  -9.0024  -8.6256  -8.0767  -7.3781  -6.5472  -5.6161  -4.6286
    -3.5377  -2.3442  -0.8509   0.6508   2.1909   3.7459   5.2073   6.1914
     6.5275   7.0125

          k = 0.0000 0.2165 0.0000 (  5496 PWs)   bands (ev):

    -8.7913  -8.5278  -8.1524  -7.6057  -6.9101  -6.0841  -5.1614  -4.1851
    -3.1027  -1.9114  -0.4295   1.0499   2.5569   4.0571   5.3710   6.0066
     6.2061   6.3704

          k = 0.0000 0.2887 0.0000 (  5490 PWs)   bands (ev):

    -8.1305  -7.8659  -7.4928  -6.9492  -6.2584  -5.4400  -4.5315  -3.5738
    -2.5052  -1.3146   0.1331   1.5393   2.8174   3.5717   4.0680   4.2450
     4.7647   4.9464

          k = 0.0000 0.3608 0.0000 (  5482 PWs)   bands (ev):

    -7.2860  -7.0197  -6.6496  -6.1104  -5.4265  -4.6206  -3.7368  -2.8107
    -1.7648  -0.5827   0.6816   1.3197   1.6715   2.1658   2.6938   2.8208
     3.4747   3.8737

          k = 0.0000 0.4330 0.0000 (  5488 PWs)   bands (ev):

    -6.2620  -5.9927  -5.6268  -5.0942  -4.4218  -3.6397  -2.8067  -1.9422
    -0.9721  -0.4433  -0.2193  -0.0327   0.4599   1.0116   1.5214   2.0498
     2.4175   3.1577

          k = 0.0000 0.5052 0.0000 (  5504 PWs)   bands (ev):

    -5.0649  -4.7899  -4.4310  -3.9109  -3.2665  -2.5723  -2.1929  -1.8981
    -1.7442  -1.5110  -1.1214  -0.9942  -0.2929   0.4205   0.8357   1.5074
     1.8314   2.6068

          k = 0.0000-0.5774 0.0000 (  5484 PWs)   bands (ev):

    -3.8075  -3.6200  -3.4360  -3.3938  -3.0944  -3.0454  -2.6745  -2.4730
    -2.0631  -1.8495  -1.4516  -1.2265  -0.5808   0.2247   0.5972   1.2784
     1.6918   2.5276

          k = 0.0625 0.1083 0.0000 (  5511 PWs)   bands (ev):

    -9.3602  -9.0975  -8.7204  -8.1712  -7.4719  -6.6401  -5.7075  -4.7178
    -3.6253  -2.4311  -0.9363   0.5689   2.1132   3.6724   5.1346   6.1087
     6.4363   6.9373

          k = 0.0625 0.1804 0.0000 (  5519 PWs)   bands (ev):

    -8.9807  -8.7174  -8.3415  -7.7939  -7.0971  -6.2691  -5.3429  -4.3618
    -3.2758  -2.0839  -0.5965   0.8935   2.4180   3.9548   5.3996   6.4025
     6.7784   7.0360

          k = 0.0625 0.2526 0.0000 (  5496 PWs)   bands (ev):

    -8.4133  -8.1492  -7.7751  -7.2301  -6.5372  -5.7153  -4.8003  -3.8341
    -2.7592  -1.5684  -0.1014   1.3504   2.8028   4.1217   4.8983   5.1760
     5.3986   5.8201

          k = 0.0625 0.3248 0.0000 (  5488 PWs)   bands (ev):

    -7.6607  -7.3951  -7.0236  -6.4825  -5.7952  -4.9833  -4.0871  -3.1455
    -2.0879  -0.8979   0.4992   1.7429   2.4408   2.9023   3.3704   3.6614
     3.9747   4.4511

          k = 0.0625 0.3969 0.0000 (  5490 PWs)   bands (ev):

    -6.7263  -6.4585  -6.0906  -5.5547  -4.8764  -4.0814  -3.2204  -2.3218
    -1.2977  -0.1647   0.4621   0.6996   1.0655   1.6070   2.0948   2.4514
     3.0400   3.3843

          k = 0.0625 0.4691 0.0000 (  5501 PWs)   bands (ev):

    -5.6151  -5.3433  -4.9808  -4.4537  -3.7920  -3.0363  -2.2651  -1.5074
    -1.1662  -0.9833  -0.6942  -0.5231   0.0625   0.7988   1.1973   1.6085
     2.3549   2.7135

          k = 0.0625 0.5413 0.0000 (  5499 PWs)   bands (ev):

    -4.3391  -4.0574  -3.7071  -3.2112  -2.8805  -2.6538  -2.5508  -2.2420
    -1.9254  -1.7014  -1.3098  -1.1159  -0.4241   0.2740   0.8511   1.2105
     2.0371   2.3473

          k = 0.1250 0.2165 0.0000 (  5513 PWs)   bands (ev):

    -8.5077  -8.2437  -7.8693  -7.3239  -6.6303  -5.8074  -4.8902  -3.9213
    -2.8445  -1.6536  -0.1813   1.2816   2.7642   4.2249   5.4642   6.1125
     6.2429   6.3417

          k = 0.1250 0.2887 0.0000 (  5487 PWs)   bands (ev):

    -7.8484  -7.5832  -7.2111  -6.6689  -5.9802  -5.1654  -4.2637  -3.3151
    -2.2523  -1.0608   0.3708   1.7539   3.0173   3.7867   4.2564   4.4822
     4.8835   4.9810

          k = 0.1250 0.3608 0.0000 (  5494 PWs)   bands (ev):

    -7.0058  -6.7387  -6.3697  -5.8321  -5.1507  -4.3496  -3.4752  -2.5600
    -1.5196  -0.3369   0.9094   1.5722   1.9218   2.4036   2.9040   3.0394
     3.6728   3.9500

          k = 0.1250 0.4330 0.0000 (  5496 PWs)   bands (ev):

    -5.9840  -5.7139  -5.3492  -4.8185  -4.1494  -3.3748  -2.5571  -1.7038
    -0.7347  -0.1811   0.0429   0.2231   0.7115   1.2676   1.7796   2.2268
     2.6554   3.2622

          k = 0.1250 0.5052 0.0000 (  5491 PWs)   bands (ev):

    -4.7900  -4.5136  -4.1565  -3.6396  -3.0022  -2.3262  -1.9306  -1.6379
    -1.4944  -1.2445  -0.8795  -0.7342  -0.0367   0.6654   1.0893   1.7295
     2.0628   2.7738

          k = 0.1250 0.5774 0.0000 (  5460 PWs)   bands (ev):

    -3.5431  -3.3458  -3.1636  -3.1203  -2.8257  -2.7751  -2.4166  -2.2021
    -1.8177  -1.5842  -1.2264  -0.9644  -0.3274   0.4776   0.8409   1.5159
     1.9030   2.6851

          k = 0.1875 0.3248 0.0000 (  5509 PWs)   bands (ev):

    -7.0991  -6.8323  -6.4629  -5.9248  -5.2424  -4.4393  -3.5609  -2.6407
    -1.5960  -0.4064   0.9277   2.0784   2.7567   3.0594   3.3131   3.5914
     3.7772   3.8523

          k = 0.1875 0.3969 0.0000 (  5493 PWs)   bands (ev):

    -6.1690  -5.8995  -5.5338  -5.0015  -4.3295  -3.5478  -2.7136  -1.8402
    -0.8265   0.2979   0.9683   1.2057   1.5399   2.0077   2.3705   2.4850
     2.7772   2.9500

          k = 0.1875 0.4691 0.0000 (  5470 PWs)   bands (ev):

    -5.0633  -4.7891  -4.4293  -3.9072  -3.2562  -2.5260  -1.7976  -1.0364
    -0.6491  -0.4512  -0.1773  -0.0294   0.5600   1.2717   1.5958   2.0020
     2.0878   2.3575

          k = 0.1875 0.5413 0.0000 (  5454 PWs)   bands (ev):

    -3.7965  -3.5097  -3.1650  -2.6830  -2.3502  -2.1362  -2.0211  -1.7099
    -1.4476  -1.1734  -0.8574  -0.5926   0.0752   0.7555   1.2825   1.5982
     1.9109   2.1855

          k = 0.2500 0.4330 0.0000 (  5491 PWs)   bands (ev):

    -5.1548  -4.8812  -4.5208  -3.9973  -3.3429  -2.6028  -1.8509  -1.0359
    -0.0991   0.5195   0.6586   0.7873   0.8474   0.9283   1.1983   1.5432
     1.9007   2.1860

          k = 0.2500 0.5052 0.0000 (  5430 PWs)   bands (ev):

    -3.9720  -3.6896  -3.3392  -2.8358  -2.2343  -1.6463  -1.1643  -0.9003
    -0.7426  -0.4565  -0.1970   0.0268   0.3703   0.5726   0.6922   0.9097
     1.2404   1.6219

          k = 0.2500 0.5774 0.0000 (  5430 PWs)   bands (ev):

    -2.7740  -2.5282  -2.3551  -2.3047  -2.0373  -1.9739  -1.6777  -1.4048
    -1.1352  -0.8086  -0.5718  -0.2029   0.2529   0.3827   0.5450   0.8621
     1.0945   1.3306

          k = 0.3125 0.5413 0.0000 (  5411 PWs)   bands (ev):

    -2.7436  -2.4315  -2.1189  -1.7473  -1.4196  -1.1895  -1.1447  -1.0104
    -0.9439  -0.7217  -0.6205  -0.4889  -0.2144  -0.0213   0.0593   0.2979
     0.5884   1.1258

     the Fermi energy is     1.7421 ev

!    total energy              =    -113.24352939 Ry
     Harris-Foulkes estimate   =    -113.24353758 Ry
     estimated scf accuracy    <       0.00000343 Ry

     The total energy is the sum of the following terms:

     one-electron contribution =   -1209.43421352 Ry
     hartree contribution      =     612.28323841 Ry
     xc contribution           =     -91.02400563 Ry
     ewald contribution        =     574.93155399 Ry
     smearing contrib. (-TS)   =      -0.00010265 Ry

     convergence has been achieved in  10 iterations

     Forces acting on atoms (Ry/au):


     negative rho (up, down):  3.037E-05 0.000E+00
     atom    1 type  1   force =     0.00000000    0.00000000   -0.00023603
     atom    2 type  1   force =    -0.00000000   -0.00000000    0.00095959
     atom    3 type  1   force =    -0.00000000   -0.00000000   -0.00177530
     atom    4 type  1   force =     0.00000000    0.00000000   -0.00064211
     atom    5 type  1   force =     0.00000000    0.00000000    0.00117579
     atom    6 type  1   force =     0.00000000    0.00000000    0.00021906
     atom    7 type  1   force =     0.00000000    0.00000000   -0.10578206
     atom    8 type  1   force =     0.00000000    0.00000000   -0.02364424
     atom    9 type  1   force =     0.00000000    0.00000000   -0.00652550
     atom   10 type  2   force =     0.00000000    0.00000000    0.13625078

     Total force =     0.174246     Total SCF correction =     0.002279


     entering subroutine stress ...


     negative rho (up, down):  3.037E-05 0.000E+00
          total   stress  (Ry/bohr**3)                   (kbar)     P=   13.99
   0.00001854   0.00000000   0.00000000          2.73      0.00      0.00
   0.00000000   0.00001854   0.00000000          0.00      2.73      0.00
   0.00000000  -0.00000000   0.00024816          0.00     -0.00     36.51


     number of scf cycles    =   4
     number of bfgs steps    =   3

     energy   old            =    -113.2234225317 Ry
     energy   new            =    -113.2435293928 Ry

     CASE: energy  _new < energy  _old

     new trust radius        =       0.1255126130 bohr
     new conv_thr            =       0.0000090000 Ry


ATOMIC_POSITIONS (crystal)
Al       0.333333300   0.666666600   0.111082078
Al       0.666666600   0.333333300   0.055645989
Al      -0.000000000  -0.000000000  -0.000139212
Al       0.333333300   0.666666600   0.277745347
Al       0.666666600   0.333333300   0.222313536
Al      -0.000000000  -0.000000000   0.166682980
Al       0.333333300   0.666666600   0.436701952
Al       0.666666600   0.333333300   0.387078379
Al      -0.000000000  -0.000000000   0.332970151
H        0.333333300   0.666666600   0.472363183



     Writing output data file Al_111_3_3.save
     NEW-OLD atomic charge density approx. for the potential

     negative rho (up, down):  8.011E-05 0.000E+00

     total cpu time spent up to now is      479.9 secs

     per-process dynamical memory:    97.9 Mb

     Self-consistent Calculation

     iteration #  1     ecut=    30.00 Ry     beta=0.30
     Davidson diagonalization with overlap
     ethr =  1.00E-06,  avg # of iterations =  8.4

     negative rho (up, down):  5.799E-05 0.000E+00

     total cpu time spent up to now is      495.5 secs

     total energy              =    -113.26097332 Ry
     Harris-Foulkes estimate   =    -113.26212937 Ry
     estimated scf accuracy    <       0.09784009 Ry

     iteration #  2     ecut=    30.00 Ry     beta=0.30
     Davidson diagonalization with overlap
     ethr =  3.49E-04,  avg # of iterations =  1.0

     negative rho (up, down):  2.600E-04 0.000E+00

     total cpu time spent up to now is      501.2 secs

     total energy              =    -113.25884570 Ry
     Harris-Foulkes estimate   =    -113.26108379 Ry
     estimated scf accuracy    <       0.05231750 Ry

     iteration #  3     ecut=    30.00 Ry     beta=0.30
     Davidson diagonalization with overlap
     ethr =  1.87E-04,  avg # of iterations =  1.5

     negative rho (up, down):  3.921E-04 0.000E+00

     total cpu time spent up to now is      507.0 secs

     total energy              =    -113.25996343 Ry
     Harris-Foulkes estimate   =    -113.25993107 Ry
     estimated scf accuracy    <       0.00505010 Ry

     iteration #  4     ecut=    30.00 Ry     beta=0.30
     Davidson diagonalization with overlap
     ethr =  1.80E-05,  avg # of iterations =  2.7

     negative rho (up, down):  4.536E-04 0.000E+00

     total cpu time spent up to now is      513.2 secs

     total energy              =    -113.25989978 Ry
     Harris-Foulkes estimate   =    -113.26004754 Ry
     estimated scf accuracy    <       0.01266775 Ry

     iteration #  5     ecut=    30.00 Ry     beta=0.30
     Davidson diagonalization with overlap
     ethr =  1.80E-05,  avg # of iterations =  1.0

     negative rho (up, down):  6.558E-04 0.000E+00

     total cpu time spent up to now is      518.9 secs

     total energy              =    -113.25992789 Ry
     Harris-Foulkes estimate   =    -113.25993672 Ry
     estimated scf accuracy    <       0.00364152 Ry

     iteration #  6     ecut=    30.00 Ry     beta=0.30
     Davidson diagonalization with overlap
     ethr =  1.30E-05,  avg # of iterations =  1.8

     negative rho (up, down):  1.006E-03 0.000E+00

     total cpu time spent up to now is      525.4 secs

     total energy              =    -113.25989101 Ry
     Harris-Foulkes estimate   =    -113.25993114 Ry
     estimated scf accuracy    <       0.00345200 Ry

     iteration #  7     ecut=    30.00 Ry     beta=0.30
     Davidson diagonalization with overlap
     ethr =  1.23E-05,  avg # of iterations =  1.0

     negative rho (up, down):  1.204E-03 0.000E+00

     total cpu time spent up to now is      530.8 secs

     total energy              =    -113.25986774 Ry
     Harris-Foulkes estimate   =    -113.25990160 Ry
     estimated scf accuracy    <       0.00112150 Ry

     iteration #  8     ecut=    30.00 Ry     beta=0.30
     Davidson diagonalization with overlap
     ethr =  4.01E-06,  avg # of iterations =  2.7

     negative rho (up, down):  1.003E-03 0.000E+00

     total cpu time spent up to now is      537.0 secs

     total energy              =    -113.25990607 Ry
     Harris-Foulkes estimate   =    -113.25991728 Ry
     estimated scf accuracy    <       0.00067823 Ry

     iteration #  9     ecut=    30.00 Ry     beta=0.30
     Davidson diagonalization with overlap
     ethr =  2.42E-06,  avg # of iterations =  1.7

     negative rho (up, down):  7.144E-04 0.000E+00

     total cpu time spent up to now is      543.1 secs

     total energy              =    -113.25989790 Ry
     Harris-Foulkes estimate   =    -113.25990819 Ry
     estimated scf accuracy    <       0.00025537 Ry

     iteration # 10     ecut=    30.00 Ry     beta=0.30
     Davidson diagonalization with overlap
     ethr =  9.12E-07,  avg # of iterations =  2.7

     negative rho (up, down):  6.790E-04 0.000E+00

     total cpu time spent up to now is      548.9 secs

[...]
     1.0411   1.3000

          k = 0.3125 0.5413 0.0000 (  5411 PWs)   bands (ev):

    -2.5586  -2.3475  -2.0246  -1.5661  -1.1580  -1.1205  -1.0184  -0.9500
    -0.8952  -0.6526  -0.5377  -0.4105  -0.1901  -0.0295   0.1339   0.2858
     0.5721   1.0781

     the Fermi energy is     1.6693 ev

!    total energy              =    -113.27165928 Ry
     Harris-Foulkes estimate   =    -113.27165933 Ry
     estimated scf accuracy    <       0.00000008 Ry

     The total energy is the sum of the following terms:

     one-electron contribution =   -1171.85054012 Ry
     hartree contribution      =     593.43755461 Ry
     xc contribution           =     -90.87213541 Ry
     ewald contribution        =     556.01354550 Ry
     smearing contrib. (-TS)   =      -0.00008385 Ry

     convergence has been achieved in   8 iterations

     Forces acting on atoms (Ry/au):


     negative rho (up, down):  2.490E-05 0.000E+00
     atom    1 type  1   force =     0.00000000    0.00000000    0.00013328
     atom    2 type  1   force =     0.00000000    0.00000000    0.00023749
     atom    3 type  1   force =    -0.00000000   -0.00000000   -0.00040264
     atom    4 type  1   force =    -0.00000000    0.00000000    0.00023086
     atom    5 type  1   force =     0.00000000    0.00000000   -0.00000924
     atom    6 type  1   force =     0.00000000    0.00000000   -0.00006845
     atom    7 type  1   force =     0.00000000    0.00000000   -0.00086010
     atom    8 type  1   force =     0.00000000    0.00000000   -0.00069770
     atom    9 type  1   force =     0.00000000    0.00000000    0.00003417
     atom   10 type  2   force =     0.00000000    0.00000000    0.00140233

     Total force =     0.001868     Total SCF correction =     0.000410
     SCF correction compared to forces is large: reduce conv_thr to get better values


     entering subroutine stress ...


     negative rho (up, down):  2.490E-05 0.000E+00
          total   stress  (Ry/bohr**3)                   (kbar)     P=   -2.96
  -0.00002018   0.00000000   0.00000000         -2.97      0.00      0.00
   0.00000000  -0.00002018   0.00000000          0.00     -2.97      0.00
   0.00000000   0.00000000  -0.00001993          0.00      0.00     -2.93


     number of scf cycles    =  34
     number of bfgs steps    =  33

     energy   old            =    -113.2716393667 Ry
     energy   new            =    -113.2716592767 Ry

     CASE: energy  _new < energy  _old

     new trust radius        =       0.0122090468 bohr
     new conv_thr            =       0.0000000900 Ry


ATOMIC_POSITIONS (crystal)
Al       0.333333300   0.666666600   0.108830192
Al       0.666666600   0.333333300   0.053261719
Al      -0.000000000  -0.000000000  -0.002851188
Al       0.333333300   0.666666600   0.275933983
Al       0.666666600   0.333333300   0.220532304
Al       0.000000000   0.000000000   0.164642721
Al       0.333333300   0.666666600   0.442150833
Al       0.666666600   0.333333300   0.387927290
Al       0.000000000   0.000000000   0.331492924
H        0.333333300   0.666666600   0.480523606



     Writing output data file Al_111_3_3.save
     NEW-OLD atomic charge density approx. for the potential

     negative rho (up, down):  2.376E-05 0.000E+00

     total cpu time spent up to now is     3206.5 secs

     per-process dynamical memory:    97.9 Mb

     Self-consistent Calculation

     iteration #  1     ecut=    30.00 Ry     beta=0.30
     Davidson diagonalization with overlap
     ethr =  1.00E-06,  avg # of iterations =  4.0

     negative rho (up, down):  1.947E-05 0.000E+00

     total cpu time spent up to now is     3215.2 secs

     total energy              =    -113.27167171 Ry
     Harris-Foulkes estimate   =    -113.27167733 Ry
     estimated scf accuracy    <       0.00028863 Ry

     iteration #  2     ecut=    30.00 Ry     beta=0.30
     Davidson diagonalization with overlap
     ethr =  1.03E-06,  avg # of iterations =  1.0

     negative rho (up, down):  2.112E-05 0.000E+00

     total cpu time spent up to now is     3221.1 secs

     total energy              =    -113.27165794 Ry
     Harris-Foulkes estimate   =    -113.27167307 Ry
     estimated scf accuracy    <       0.00017891 Ry

     iteration #  3     ecut=    30.00 Ry     beta=0.30
     Davidson diagonalization with overlap
     ethr =  6.39E-07,  avg # of iterations =  2.6

     negative rho (up, down):  1.740E-05 0.000E+00

     total cpu time spent up to now is     3227.7 secs

     total energy              =    -113.27166627 Ry
     Harris-Foulkes estimate   =    -113.27166737 Ry
     estimated scf accuracy    <       0.00003276 Ry

     iteration #  4     ecut=    30.00 Ry     beta=0.30
     Davidson diagonalization with overlap
     ethr =  1.17E-07,  avg # of iterations =  1.5

     negative rho (up, down):  1.932E-05 0.000E+00

     total cpu time spent up to now is     3233.5 secs

     total energy              =    -113.27166699 Ry
     Harris-Foulkes estimate   =    -113.27166712 Ry
     estimated scf accuracy    <       0.00000403 Ry

     iteration #  5     ecut=    30.00 Ry     beta=0.30
     Davidson diagonalization with overlap
     ethr =  1.44E-08,  avg # of iterations =  1.9

     negative rho (up, down):  2.709E-05 0.000E+00

     total cpu time spent up to now is     3239.8 secs

     total energy              =    -113.27166692 Ry
     Harris-Foulkes estimate   =    -113.27166717 Ry
     estimated scf accuracy    <       0.00000066 Ry

     iteration #  6     ecut=    30.00 Ry     beta=0.30
     Davidson diagonalization with overlap
     ethr =  2.36E-09,  avg # of iterations =  3.1

     negative rho (up, down):  3.021E-05 0.000E+00

     total cpu time spent up to now is     3247.2 secs

     total energy              =    -113.27166696 Ry
     Harris-Foulkes estimate   =    -113.27166713 Ry
     estimated scf accuracy    <       0.00000694 Ry

     iteration #  7     ecut=    30.00 Ry     beta=0.30
     Davidson diagonalization with overlap
     ethr =  2.36E-09,  avg # of iterations =  2.0

     negative rho (up, down):  3.568E-05 0.000E+00

     total cpu time spent up to now is     3253.4 secs

     total energy              =    -113.27166699 Ry
     Harris-Foulkes estimate   =    -113.27166702 Ry
     estimated scf accuracy    <       0.00000090 Ry

     iteration #  8     ecut=    30.00 Ry     beta=0.30
     Davidson diagonalization with overlap
     ethr =  2.36E-09,  avg # of iterations =  2.0

     negative rho (up, down):  3.423E-05 0.000E+00

     total cpu time spent up to now is     3260.2 secs

     total energy              =    -113.27166702 Ry
     Harris-Foulkes estimate   =    -113.27166703 Ry
     estimated scf accuracy    <       0.00000034 Ry

     iteration #  9     ecut=    30.00 Ry     beta=0.30
     Davidson diagonalization with overlap
     ethr =  1.22E-09,  avg # of iterations =  1.1

     negative rho (up, down):  3.514E-05 0.000E+00

     total cpu time spent up to now is     3266.1 secs

     total energy              =    -113.27166702 Ry
     Harris-Foulkes estimate   =    -113.27166703 Ry
     estimated scf accuracy    <       0.00000036 Ry

     iteration # 10     ecut=    30.00 Ry     beta=0.30
     Davidson diagonalization with overlap
     ethr =  1.22E-09,  avg # of iterations =  1.1

     negative rho (up, down):  3.511E-05 0.000E+00

     total cpu time spent up to now is     3271.9 secs

     total energy              =    -113.27166702 Ry
     Harris-Foulkes estimate   =    -113.27166702 Ry
     estimated scf accuracy    <       0.00000010 Ry

     iteration # 11     ecut=    30.00 Ry     beta=0.30
     Davidson diagonalization with overlap
     ethr =  3.67E-10,  avg # of iterations =  1.6

     negative rho (up, down):  2.485E-05 0.000E+00

     total cpu time spent up to now is     3277.7 secs

     End of self-consistent calculation

          k = 0.0000 0.0000 0.0000 (  5537 PWs)   bands (ev):

    -9.5420  -9.3096  -8.9442  -8.4175  -7.7388  -6.9257  -6.0114  -5.0024
    -3.8895  -2.7633  -1.3908   0.0203   1.5276   3.0600   4.5473   5.6745
     6.3221   6.7744

          k = 0.0000 0.0722 0.0000 (  5524 PWs)   bands (ev):

    -9.4465  -9.2143  -8.8491  -8.3227  -7.6446  -6.8322  -5.9188  -4.9110
    -3.7999  -2.6758  -1.3042   0.1049   1.6098   3.1407   4.6287   5.7615
     6.4139   6.8639

          k = 0.0000 0.1443 0.0000 (  5500 PWs)   bands (ev):

    -9.1604  -8.9287  -8.5643  -8.0389  -7.3622  -6.5519  -5.6416  -4.6379
    -3.5325  -2.4147  -1.0469   0.3560   1.8538   3.3776   4.8633   6.0122
     6.6803   7.1178

          k = 0.0000 0.2165 0.0000 (  5496 PWs)   bands (ev):

    -8.6850  -8.4540  -8.0909  -7.5673  -6.8932  -6.0864  -5.1817  -4.1854
    -3.0913  -1.9824  -0.6250   0.7638   2.2415   3.7316   5.1308   6.0404
     6.1040   6.4301

          k = 0.0000 0.2887 0.0000 (  5490 PWs)   bands (ev):

    -8.0218  -7.7919  -7.4309  -6.9100  -6.2395  -5.4382  -4.5427  -3.5593
    -2.4847  -1.3864  -0.0576   1.2894   2.6417   3.5478   4.0416   4.2464
     4.6724   4.7919

          k = 0.0000 0.3608 0.0000 (  5482 PWs)   bands (ev):

    -7.1736  -6.9453  -6.5872  -6.0697  -5.4045  -4.6116  -3.7312  -2.7713
    -1.7330  -0.6531   0.5553   1.3814   1.6825   2.1427   2.5662   2.7956
     3.4387   3.6683

          k = 0.0000 0.4330 0.0000 (  5488 PWs)   bands (ev):

    -6.1440  -5.9178  -5.5633  -5.0508  -4.3939  -3.6155  -2.7651  -1.8575
    -0.9190  -0.3103  -0.1895  -0.0198   0.4505   0.9876   1.4732   1.8880
     2.3569   2.9861

          k = 0.0000 0.5052 0.0000 (  5504 PWs)   bands (ev):

    -4.9371  -4.7138  -4.3652  -3.8611  -3.2207  -2.4841  -2.0328  -1.8227
    -1.6834  -1.4645  -1.0283  -0.9338  -0.3118   0.3705   0.7895   1.3832
     1.7455   2.4362

          k = 0.0000-0.5774 0.0000 (  5484 PWs)   bands (ev):

    -3.5692  -3.5553  -3.3641  -3.3297  -3.0477  -2.9426  -2.5776  -2.4520
    -1.9712  -1.8373  -1.2644  -1.2095  -0.5865   0.1490   0.5718   1.1399
     1.6016   2.3592

          k = 0.0625 0.1083 0.0000 (  5511 PWs)   bands (ev):

    -9.2557  -9.0238  -8.6592  -8.1335  -7.4563  -6.6452  -5.7339  -4.7288
    -3.6213  -2.5014  -1.1323   0.2729   1.7734   3.3000   4.7876   5.9318
     6.5944   7.0389

          k = 0.0625 0.1804 0.0000 (  5519 PWs)   bands (ev):

    -8.8750  -8.6437  -8.2801  -7.7558  -7.0806  -6.2724  -5.3654  -4.3659
    -3.2668  -2.1546  -0.7924   0.6029   2.0911   3.6025   5.0735   6.2245
     6.8895   7.2276

          k = 0.0625 0.2526 0.0000 (  5496 PWs)   bands (ev):

    -8.3056  -8.0753  -7.7134  -7.1913  -6.5192  -5.7154  -4.8157  -3.8264
    -2.7426  -1.6398  -0.2955   1.0767   2.5225   3.9134   4.8559   5.1416
     5.4308   5.7328

          k = 0.0625 0.3248 0.0000 (  5488 PWs)   bands (ev):

    -7.5500  -7.3209  -6.9615  -6.4424  -5.7749  -4.9779  -4.0900  -3.1183
    -2.0611  -0.9701   0.3207   1.5829   2.4574   2.8975   3.3717   3.5231
     3.8986   4.4225

          k = 0.0625 0.3969 0.0000 (  5490 PWs)   bands (ev):

    -6.6111  -6.3839  -6.0276  -5.5127  -4.8517  -4.0656  -3.1988  -2.2610
    -1.2588  -0.2190   0.5716   0.7137   1.0595   1.5625   2.0327   2.4023
     2.8493   3.3115

          k = 0.0625 0.4691 0.0000 (  5501 PWs)   bands (ev):

    -5.4927  -5.2679  -4.9163  -4.4078  -3.7576  -2.9935  -2.1785  -1.3696
    -1.0669  -0.9313  -0.6292  -0.4934   0.0553   0.7641   1.1089   1.5560
     2.1803   2.5903

          k = 0.0625 0.5413 0.0000 (  5499 PWs)   bands (ev):

    -4.2001  -3.9796  -3.6369  -3.1446  -2.7491  -2.5365  -2.5014  -2.1902
    -1.8286  -1.6825  -1.1372  -1.1018  -0.4385   0.2393   0.7475   1.1566
     1.8814   2.2285

          k = 0.1250 0.2165 0.0000 (  5513 PWs)   bands (ev):

    -8.4004  -8.1698  -7.8077  -7.2852  -6.6126  -5.8081  -4.9070  -3.9158
    -2.8292  -1.7250  -0.3762   1.0025   2.4650   3.9290   5.2709   6.1097
     6.3192   6.3358

          k = 0.1250 0.2887 0.0000 (  5487 PWs)   bands (ev):

    -7.7385  -7.5091  -7.1491  -6.6292  -5.9605  -5.1616  -4.2703  -3.2934
    -2.2282  -1.1333   0.1819   1.5148   2.8500   3.7703   4.2591   4.4748
     4.7711   4.9973

          k = 0.1250 0.3608 0.0000 (  5494 PWs)   bands (ev):

    -6.8921  -6.6643  -6.3070  -5.7908  -5.1275  -4.3377  -3.4631  -2.5116
    -1.4853  -0.4085   0.7844   1.6307   1.9320   2.3810   2.7919   3.0331
     3.6481   3.7998

          k = 0.1250 0.4330 0.0000 (  5496 PWs)   bands (ev):

    -5.8645  -5.6388  -5.2854  -4.7743  -4.1195  -3.3453  -2.5040  -1.6095
    -0.6834  -0.0434   0.0600   0.2358   0.7032   1.2449   1.7273   2.0858
     2.6025   3.1199

          k = 0.1250 0.5052 0.0000 (  5491 PWs)   bands (ev):

    -4.6599  -4.4372  -4.0900  -3.5880  -2.9514  -2.2229  -1.7656  -1.5583
    -1.4290  -1.1973  -0.7729  -0.6970  -0.0578   0.6144   1.0444   1.6071
     1.9816   2.6282

          k = 0.1250 0.5774 0.0000 (  5460 PWs)   bands (ev):

    -3.2953  -3.2809  -3.0922  -3.0564  -2.7783  -2.6686  -2.3127  -2.1804
    -1.7126  -1.5703  -1.0184  -0.9699  -0.3377   0.4032   0.8136   1.3820
     1.8153   2.5395

          k = 0.1875 0.3248 0.0000 (  5509 PWs)   bands (ev):

    -6.9858  -6.7579  -6.4003  -5.8837  -5.2198  -4.4286  -3.5515  -2.5960
    -1.5631  -0.4800   0.7633   1.9613   2.7958   3.1073   3.3587   3.6132
     3.7439   3.9191

          k = 0.1875 0.3969 0.0000 (  5493 PWs)   bands (ev):

    -6.0507  -5.8246  -5.4703  -4.9581  -4.3013  -3.5232  -2.6724  -1.7584
    -0.7866   0.2412   1.0691   1.2125   1.5397   2.0000   2.3956   2.5160
     2.7716   2.9609

          k = 0.1875 0.4691 0.0000 (  5470 PWs)   bands (ev):

    -4.9368  -4.7131  -4.3638  -3.8587  -3.2150  -2.4637  -1.6766  -0.8945
    -0.5371  -0.4034  -0.1228  -0.0164   0.5527   1.2320   1.5408   1.9779
     2.1755   2.3489

          k = 0.1875 0.5413 0.0000 (  5454 PWs)   bands (ev):

    -3.6496  -3.4309  -3.0919  -2.6058  -2.2073  -2.0023  -1.9675  -1.6550
    -1.3236  -1.1510  -0.6782  -0.6028   0.0539   0.7186   1.2027   1.5579
     2.0036   2.1386

          k = 0.2500 0.4330 0.0000 (  5491 PWs)   bands (ev):

    -5.0293  -4.8054  -4.4556  -3.9496  -3.3039  -2.5478  -1.7465  -0.9125
    -0.0529   0.6895   0.7424   0.7526   0.8693   0.9709   1.2381   1.5690
     1.9334   2.1537

          k = 0.2500 0.5052 0.0000 (  5430 PWs)   bands (ev):

    -3.8321  -3.6119  -3.2696  -2.7751  -2.1541  -1.4647  -0.9798  -0.8059
    -0.6792  -0.4085  -0.1087   0.0329   0.4758   0.6081   0.6841   0.9406
     1.2200   1.6114

          k = 0.2500 0.5774 0.0000 (  5430 PWs)   bands (ev):

    -2.4800  -2.4631  -2.2835  -2.2414  -1.9771  -1.8556  -1.5382  -1.3764
    -0.9740  -0.7851  -0.4068  -0.2159   0.3128   0.4159   0.5943   0.9017
     1.0398   1.2995

          k = 0.3125 0.5413 0.0000 (  5411 PWs)   bands (ev):

    -2.5585  -2.3459  -2.0208  -1.5626  -1.1570  -1.1202  -1.0160  -0.9486
    -0.8942  -0.6492  -0.5343  -0.4076  -0.1878  -0.0276   0.1359   0.2860
     0.5727   1.0768

     the Fermi energy is     1.6673 ev

!    total energy              =    -113.27166694 Ry
     Harris-Foulkes estimate   =    -113.27166702 Ry
     estimated scf accuracy    <       0.00000009 Ry

     The total energy is the sum of the following terms:

     one-electron contribution =   -1170.91511587 Ry
     hartree contribution      =     592.97054387 Ry
     xc contribution           =     -90.86923948 Ry
     ewald contribution        =     555.54222600 Ry
     smearing contrib. (-TS)   =      -0.00008146 Ry

     convergence has been achieved in  11 iterations

     Forces acting on atoms (Ry/au):


     negative rho (up, down):  2.485E-05 0.000E+00
     atom    1 type  1   force =     0.00000000   -0.00000000   -0.00002803
     atom    2 type  1   force =     0.00000000    0.00000000   -0.00007782
     atom    3 type  1   force =    -0.00000000   -0.00000000    0.00003991
     atom    4 type  1   force =     0.00000000    0.00000000    0.00023650
     atom    5 type  1   force =     0.00000000    0.00000000   -0.00019935
     atom    6 type  1   force =     0.00000000    0.00000000    0.00018374
     atom    7 type  1   force =     0.00000000    0.00000000   -0.00031767
     atom    8 type  1   force =     0.00000000    0.00000000   -0.00027651
     atom    9 type  1   force =     0.00000000    0.00000000   -0.00004480
     atom   10 type  2   force =     0.00000000   -0.00000000    0.00048403

     Total force =     0.000743     Total SCF correction =     0.000469
     SCF correction compared to forces is large: reduce conv_thr to get better values


     entering subroutine stress ...


     negative rho (up, down):  2.485E-05 0.000E+00
          total   stress  (Ry/bohr**3)                   (kbar)     P=   -3.21
  -0.00002120   0.00000000   0.00000000         -3.12      0.00      0.00
   0.00000000  -0.00002120   0.00000000          0.00     -3.12      0.00
   0.00000000   0.00000000  -0.00002315          0.00      0.00     -3.41


     bfgs converged in  35 scf cycles and  34 bfgs steps
     (criteria: energy <  1.0E-04, force <  1.0E-03)

     End of BFGS Geometry Optimization

     Final energy   =    -113.2716669374 Ry
Begin final coordinates

ATOMIC_POSITIONS (crystal)
Al       0.333333300   0.666666600   0.108830192
Al       0.666666600   0.333333300   0.053261719
Al      -0.000000000  -0.000000000  -0.002851188
Al       0.333333300   0.666666600   0.275933983
Al       0.666666600   0.333333300   0.220532304
Al       0.000000000   0.000000000   0.164642721
Al       0.333333300   0.666666600   0.442150833
Al       0.666666600   0.333333300   0.387927290
Al       0.000000000   0.000000000   0.331492924
H        0.333333300   0.666666600   0.480523606
End final coordinates



     Writing output data file Al_111_3_3.save

     init_run     :      2.88s CPU      4.18s WALL (       1 calls)
     electrons    :   1571.76s CPU   3102.84s WALL (      35 calls)
     update_pot   :     13.84s CPU     14.96s WALL (      34 calls)
     forces       :     50.04s CPU     52.85s WALL (      35 calls)
     stress       :     95.89s CPU    101.35s WALL (      35 calls)

     Called by init_run:
     wfcinit      :      2.30s CPU      3.55s WALL (       1 calls)
     potinit      :      0.17s CPU      0.19s WALL (       1 calls)

     Called by electrons:
     c_bands      :   1164.41s CPU   2214.93s WALL (     452 calls)
     sum_band     :    148.22s CPU    370.78s WALL (     452 calls)
     v_of_rho     :     49.75s CPU     57.74s WALL (     487 calls)
     newd         :     33.84s CPU     35.61s WALL (     487 calls)
     mix_rho      :    177.98s CPU    425.37s WALL (     452 calls)

     Called by c_bands:
     init_us_2    :     32.61s CPU     50.03s WALL (   29250 calls)
     cegterg      :   1130.64s CPU   2162.52s WALL (   13560 calls)

     Called by *egterg:
     h_psi        :    415.58s CPU   1321.98s WALL (   41635 calls)
     s_psi        :    163.78s CPU    193.21s WALL (   41635 calls)
     g_psi        :      5.68s CPU      8.62s WALL (   28045 calls)
     cdiaghg      :     18.65s CPU     31.53s WALL (   40585 calls)

     Called by h_psi:
     add_vuspsi   :    167.50s CPU    194.29s WALL (   41635 calls)

     General routines
     calbec       :    245.40s CPU    321.11s WALL (   57295 calls)
     fft          :     21.47s CPU     34.57s WALL (    8561 calls)
     ffts         :     74.49s CPU    211.58s WALL (  164572 calls)
     fftw         :     82.56s CPU    907.90s WALL ( 1342482 calls)
     interpolate  :      2.98s CPU      5.69s WALL (     939 calls)
     davcio       :      0.00s CPU      0.02s WALL (      30 calls)

     Parallel routines
     fft_scatter  :     27.80s CPU    170.99s WALL ( 1515615 calls)

     PWSCF        : 28m59.86s CPU    54m42.13s WALL


   This run was terminated on:  19:19: 6   3Jun2020            

=------------------------------------------------------------------------------=
   JOB DONE.
=------------------------------------------------------------------------------=
