
     Program PWSCF v.6.4.1 starts on  7Jun2020 at  6:20:21 

     This program is part of the open-source Quantum ESPRESSO suite
     for quantum simulation of materials; please cite
         "P. Giannozzi et al., J. Phys.:Condens. Matter 21 395502 (2009);
         "P. Giannozzi et al., J. Phys.:Condens. Matter 29 465901 (2017);
          URL http://www.quantum-espresso.org", 
     in publications or presentations arising from this work. More details at
     http://www.quantum-espresso.org/quote

     Parallel version (MPI), running on     1 processors

     MPI processes distributed on     1 nodes
     Reading input from Al_111_H1_site_1.pw.in

     Current dimensions of program PWSCF are:
     Max number of different atomic species (ntypx) = 10
     Max number of k-points (npk) =  40000
     Max angular momentum in pseudopotentials (lmaxx) =  3
               file H.pbe-rrkjus.UPF: wavefunction(s)  1S renormalized

     Subspace diagonalization in iterative solution of the eigenvalue problem:
     a serial algorithm will be used


     G-vector sticks info
     --------------------
     sticks:   dense  smooth     PW     G-vecs:    dense   smooth      PW
     Sum        1189     955    271               490481   351617   53557



     bravais-lattice index     =            4
     lattice parameter (alat)  =      10.7520  a.u.
     unit-cell volume          =   15820.6847 (a.u.)^3
     number of atoms/cell      =           37
     number of atomic types    =            2
     number of electrons       =       109.00
     number of Kohn-Sham states=           66
     kinetic-energy cutoff     =      30.0000  Ry
     charge density cutoff     =     150.0000  Ry
     convergence threshold     =      3.6E-05
     mixing beta               =       0.3000
     number of iterations used =            8  local-TF  mixing
     Exchange-correlation      =  SLA  PW   PBE  PBE ( 1  4  3  4 0 0)
     nstep                     =           50


     celldm(1)=  10.752000  celldm(2)=   0.000000  celldm(3)=  14.696938
     celldm(4)=   0.000000  celldm(5)=   0.000000  celldm(6)=   0.000000

     crystal axes: (cart. coord. in units of alat)
               a(1) = (   1.000000   0.000000   0.000000 )  
               a(2) = (  -0.500000   0.866025   0.000000 )  
               a(3) = (   0.000000   0.000000  14.696938 )  

     reciprocal axes: (cart. coord. in units 2 pi/alat)
               b(1) = (  1.000000  0.577350 -0.000000 )  
               b(2) = (  0.000000  1.154701  0.000000 )  
               b(3) = (  0.000000 -0.000000  0.068041 )  


     PseudoPot. # 1 for Al read from file:
     ./Al.pbe-n-van.UPF
     MD5 check sum: b11ded24487aef5bc42d5c7a2e22a7b6
     Pseudo is Ultrasoft + core correction, Zval =  3.0
     Generated by new atomic code, or converted to UPF format
     Using radial grid of  893 points,  2 beta functions with: 
                l(1) =   0
                l(2) =   1
     Q(r) pseudized with  8 coefficients,  rinner =    0.900   0.900   0.900


     PseudoPot. # 2 for H  read from file:
     ./H.pbe-rrkjus.UPF
     MD5 check sum: 0433647300470310da31d564c103eed6
     Pseudo is Ultrasoft, Zval =  1.0
     Generated by new atomic code, or converted to UPF format
     Using radial grid of 1061 points,  2 beta functions with: 
                l(1) =   0
                l(2) =   0
     Q(r) pseudized with 0 coefficients 


     atomic species   valence    mass     pseudopotential
        Al             3.00    26.98000     Al( 1.00)
        H              1.00     1.00790     H ( 1.00)

      6 Sym. Ops. (no inversion) found ( 4 have fractional translation)



   Cartesian axes

     site n.     atom                  positions (alat units)
         1           Al  tau(   1) = (   0.2500002   0.1443374   0.8164957  )
         2           Al  tau(   2) = (   0.0000002   0.5773501   0.8164957  )
         3           Al  tau(   3) = (   0.7500002   0.1443374   0.8164957  )
         4           Al  tau(   4) = (   0.5000002   0.5773501   0.8164957  )
         5           Al  tau(   5) = (   0.0000000   0.0000000   0.0000000  )
         6           Al  tau(   6) = (  -0.2500000   0.4330127   0.0000000  )
         7           Al  tau(   7) = (   0.5000000   0.0000000   0.0000000  )
         8           Al  tau(   8) = (   0.2500000   0.4330127   0.0000000  )
         9           Al  tau(   9) = (  -0.0000003   0.2886753   1.6329939  )
        10           Al  tau(  10) = (  -0.2500003   0.7216880   1.6329939  )
        11           Al  tau(  11) = (   0.4999998   0.2886753   1.6329939  )
        12           Al  tau(  12) = (   0.2499998   0.7216880   1.6329939  )
        13           Al  tau(  13) = (   0.2500002   0.1443374   3.2659855  )
        14           Al  tau(  14) = (   0.0000002   0.5773501   3.2659855  )
        15           Al  tau(  15) = (   0.7500002   0.1443374   3.2659855  )
        16           Al  tau(  16) = (   0.5000002   0.5773501   3.2659855  )
        17           Al  tau(  17) = (   0.0000000   0.0000000   2.4494897  )
        18           Al  tau(  18) = (  -0.2500000   0.4330127   2.4494897  )
        19           Al  tau(  19) = (   0.5000000   0.0000000   2.4494897  )
        20           Al  tau(  20) = (   0.2500000   0.4330127   2.4494897  )
        21           Al  tau(  21) = (  -0.0000003   0.2886753   4.0824837  )
        22           Al  tau(  22) = (  -0.2500003   0.7216880   4.0824837  )
        23           Al  tau(  23) = (   0.4999998   0.2886753   4.0824837  )
        24           Al  tau(  24) = (   0.2499998   0.7216880   4.0824837  )
        25           Al  tau(  25) = (   0.2500002   0.1443374   5.7154752  )
        26           Al  tau(  26) = (   0.0000002   0.5773501   5.7154752  )
        27           Al  tau(  27) = (   0.7500002   0.1443374   5.7154752  )
        28           Al  tau(  28) = (   0.5000002   0.5773501   5.7154752  )
        29           Al  tau(  29) = (   0.0000000   0.0000000   4.8989795  )
        30           Al  tau(  30) = (  -0.2500000   0.4330127   4.8989795  )
        31           Al  tau(  31) = (   0.5000000   0.0000000   4.8989795  )
        32           Al  tau(  32) = (   0.2500000   0.4330127   4.8989795  )
        33           Al  tau(  33) = (  -0.0000003   0.2886753   6.5319734  )
        34           Al  tau(  34) = (  -0.2500003   0.7216880   6.5319734  )
        35           Al  tau(  35) = (   0.4999998   0.2886753   6.5319734  )
        36           Al  tau(  36) = (   0.2499998   0.7216880   6.5319734  )
        37           H   tau(  37) = (  -0.0000003   0.2886753   6.7965183  )

     number of k points=    44  Marzari-Vanderbilt smearing, width (Ry)=  0.0250
                       cart. coord. in units 2pi/alat
        k(    1) = (   0.0000000   0.0000000   0.0000000), wk =   0.0050000
        k(    2) = (   0.0000000   0.0577350   0.0000000), wk =   0.0300000
        k(    3) = (   0.0000000   0.1154701   0.0000000), wk =   0.0300000
        k(    4) = (   0.0000000   0.1732051   0.0000000), wk =   0.0300000
        k(    5) = (   0.0000000   0.2309401   0.0000000), wk =   0.0300000
        k(    6) = (   0.0000000   0.2886751   0.0000000), wk =   0.0300000
        k(    7) = (   0.0000000   0.3464102   0.0000000), wk =   0.0300000
        k(    8) = (   0.0000000   0.4041452   0.0000000), wk =   0.0300000
        k(    9) = (   0.0000000   0.4618802   0.0000000), wk =   0.0300000
        k(   10) = (   0.0000000   0.5196152   0.0000000), wk =   0.0300000
        k(   11) = (   0.0000000  -0.5773503   0.0000000), wk =   0.0150000
        k(   12) = (   0.0500000   0.0866025   0.0000000), wk =   0.0300000
        k(   13) = (   0.0500000   0.1443376   0.0000000), wk =   0.0600000
        k(   14) = (   0.0500000   0.2020726   0.0000000), wk =   0.0600000
        k(   15) = (   0.0500000   0.2598076   0.0000000), wk =   0.0600000
        k(   16) = (   0.0500000   0.3175426   0.0000000), wk =   0.0600000
        k(   17) = (   0.0500000   0.3752777   0.0000000), wk =   0.0600000
        k(   18) = (   0.0500000   0.4330127   0.0000000), wk =   0.0600000
        k(   19) = (   0.0500000   0.4907477   0.0000000), wk =   0.0600000
        k(   20) = (   0.0500000   0.5484828   0.0000000), wk =   0.0600000
        k(   21) = (   0.1000000   0.1732051   0.0000000), wk =   0.0300000
        k(   22) = (   0.1000000   0.2309401   0.0000000), wk =   0.0600000
        k(   23) = (   0.1000000   0.2886751   0.0000000), wk =   0.0600000
        k(   24) = (   0.1000000   0.3464102   0.0000000), wk =   0.0600000
        k(   25) = (   0.1000000   0.4041452   0.0000000), wk =   0.0600000
        k(   26) = (   0.1000000   0.4618802   0.0000000), wk =   0.0600000
        k(   27) = (   0.1000000   0.5196152   0.0000000), wk =   0.0600000
        k(   28) = (   0.1000000   0.5773503   0.0000000), wk =   0.0300000
        k(   29) = (   0.1500000   0.2598076   0.0000000), wk =   0.0300000
        k(   30) = (   0.1500000   0.3175426   0.0000000), wk =   0.0600000
        k(   31) = (   0.1500000   0.3752777   0.0000000), wk =   0.0600000
        k(   32) = (   0.1500000   0.4330127   0.0000000), wk =   0.0600000
        k(   33) = (   0.1500000   0.4907477   0.0000000), wk =   0.0600000
        k(   34) = (   0.1500000   0.5484828   0.0000000), wk =   0.0600000
        k(   35) = (   0.2000000   0.3464102   0.0000000), wk =   0.0300000
        k(   36) = (   0.2000000   0.4041452   0.0000000), wk =   0.0600000
        k(   37) = (   0.2000000   0.4618802   0.0000000), wk =   0.0600000
        k(   38) = (   0.2000000   0.5196152   0.0000000), wk =   0.0600000
        k(   39) = (   0.2000000   0.5773503   0.0000000), wk =   0.0300000
        k(   40) = (   0.2500000   0.4330127   0.0000000), wk =   0.0300000
        k(   41) = (   0.2500000   0.4907477   0.0000000), wk =   0.0600000
        k(   42) = (   0.2500000   0.5484828   0.0000000), wk =   0.0600000
        k(   43) = (   0.3000000   0.5196152   0.0000000), wk =   0.0300000
        k(   44) = (   0.3000000   0.5773503   0.0000000), wk =   0.0300000

     Dense  grid:   490481 G-vectors     FFT dimensions: (  48,  48, 625)

     Smooth grid:   351617 G-vectors     FFT dimensions: (  40,  40, 576)

     Estimated max dynamical RAM per process >       3.27 GB

     Initial potential from superposition of free atoms

     starting charge  108.81504, renormalised to  109.00000

     negative rho (up, down):  3.630E-04 0.000E+00
     Starting wfcs are  145 randomized atomic wfcs

     total cpu time spent up to now is     1014.2 secs

     Self-consistent Calculation

     iteration #  1     ecut=    30.00 Ry     beta= 0.30
     Davidson diagonalization with overlap
     ethr =  1.00E-02,  avg # of iterations =  4.7

     negative rho (up, down):  5.711E-03 0.000E+00

     total cpu time spent up to now is     2743.7 secs

     total energy              =    -449.96985761 Ry
     Harris-Foulkes estimate   =    -452.94376105 Ry
     estimated scf accuracy    <    1274.71748984 Ry

     iteration #  2     ecut=    30.00 Ry     beta= 0.30
     Davidson diagonalization with overlap
     ethr =  1.00E-02,  avg # of iterations =  1.1

     negative rho (up, down):  1.556E-01 0.000E+00

     total cpu time spent up to now is     3795.5 secs

     total energy              =    -444.94945510 Ry
     Harris-Foulkes estimate   =    -450.37915791 Ry
     estimated scf accuracy    <     666.50094087 Ry

     iteration #  3     ecut=    30.00 Ry     beta= 0.30
     Davidson diagonalization with overlap
     ethr =  1.00E-02,  avg # of iterations =  4.9

     negative rho (up, down):  1.255E-01 0.000E+00

     total cpu time spent up to now is     4987.6 secs

     total energy              =    -447.80787219 Ry
     Harris-Foulkes estimate   =    -447.66737518 Ry
     estimated scf accuracy    <      23.54398265 Ry

     iteration #  4     ecut=    30.00 Ry     beta= 0.30
     Davidson diagonalization with overlap
     ethr =  1.00E-02,  avg # of iterations =  1.1

     negative rho (up, down):  4.007E-01 0.000E+00

     total cpu time spent up to now is     6021.4 secs

     total energy              =    -446.83412523 Ry
     Harris-Foulkes estimate   =    -447.83860979 Ry
     estimated scf accuracy    <      30.34754618 Ry

     iteration #  5     ecut=    30.00 Ry     beta= 0.30
     Davidson diagonalization with overlap
     ethr =  1.00E-02,  avg # of iterations =  6.3

     negative rho (up, down):  1.235E-01 0.000E+00

     total cpu time spent up to now is     7416.1 secs

     total energy              =    -447.34036701 Ry
     Harris-Foulkes estimate   =    -448.93653321 Ry
     estimated scf accuracy    <     131.24175643 Ry

     iteration #  6     ecut=    30.00 Ry     beta= 0.30
     Davidson diagonalization with overlap
     ethr =  1.00E-02,  avg # of iterations =  1.7

     negative rho (up, down):  1.494E-01 0.000E+00

     total cpu time spent up to now is     8453.7 secs

     total energy              =    -447.89901274 Ry
     Harris-Foulkes estimate   =    -447.89145013 Ry
     estimated scf accuracy    <       4.66596855 Ry

     iteration #  7     ecut=    30.00 Ry     beta= 0.30
     Davidson diagonalization with overlap
     ethr =  4.28E-03,  avg # of iterations =  1.8

     negative rho (up, down):  1.459E-01 0.000E+00

     total cpu time spent up to now is     9497.9 secs

     total energy              =    -447.84113099 Ry
     Harris-Foulkes estimate   =    -447.94038734 Ry
     estimated scf accuracy    <      14.00450641 Ry

     iteration #  8     ecut=    30.00 Ry     beta= 0.30
     Davidson diagonalization with overlap
     ethr =  4.28E-03,  avg # of iterations =  1.1

     negative rho (up, down):  1.689E-01 0.000E+00

     total cpu time spent up to now is    10534.4 secs

     total energy              =    -447.69529683 Ry
     Harris-Foulkes estimate   =    -447.87304946 Ry
     estimated scf accuracy    <       2.38223024 Ry

     iteration #  9     ecut=    30.00 Ry     beta= 0.30
     Davidson diagonalization with overlap
     ethr =  2.19E-03,  avg # of iterations =  7.5

     negative rho (up, down):  1.509E-01 0.000E+00

     total cpu time spent up to now is    11886.7 secs

     total energy              =    -448.43931557 Ry
     Harris-Foulkes estimate   =    -448.81728958 Ry
     estimated scf accuracy    <     236.88200919 Ry

     iteration # 10     ecut=    30.00 Ry     beta= 0.30
     Davidson diagonalization with overlap
     ethr =  2.19E-03,  avg # of iterations =  1.3

     negative rho (up, down):  1.429E-01 0.000E+00

     total cpu time spent up to now is    12931.1 secs

     total energy              =    -448.29858332 Ry
     Harris-Foulkes estimate   =    -448.47612373 Ry
     estimated scf accuracy    <     167.12900366 Ry

     iteration # 11     ecut=    30.00 Ry     beta= 0.30
     Davidson diagonalization with overlap
     ethr =  2.19E-03,  avg # of iterations =  1.0

     negative rho (up, down):  1.165E-01 0.000E+00

     total cpu time spent up to now is    13962.6 secs

     total energy              =    -447.35614991 Ry
     Harris-Foulkes estimate   =    -448.31052834 Ry
     estimated scf accuracy    <     126.38987104 Ry

     iteration # 12     ecut=    30.00 Ry     beta= 0.30
     Davidson diagonalization with overlap
     ethr =  2.19E-03,  avg # of iterations =  2.7

     negative rho (up, down):  1.286E-01 0.000E+00

     total cpu time spent up to now is    15061.1 secs

     total energy              =    -447.77719173 Ry
     Harris-Foulkes estimate   =    -447.79697768 Ry
     estimated scf accuracy    <       1.51555553 Ry

     iteration # 13     ecut=    30.00 Ry     beta= 0.30
     Davidson diagonalization with overlap
     ethr =  1.39E-03,  avg # of iterations =  2.5

     negative rho (up, down):  1.335E-01 0.000E+00

     total cpu time spent up to now is    16141.3 secs

     total energy              =    -447.80445158 Ry
     Harris-Foulkes estimate   =    -447.80190341 Ry
     estimated scf accuracy    <       1.34409504 Ry

     iteration # 14     ecut=    30.00 Ry     beta= 0.30
     Davidson diagonalization with overlap
     ethr =  1.23E-03,  avg # of iterations =  1.2

     negative rho (up, down):  1.116E-01 0.000E+00

     total cpu time spent up to now is    17147.6 secs

     total energy              =    -447.78093784 Ry
     Harris-Foulkes estimate   =    -447.81094518 Ry
     estimated scf accuracy    <       2.05376250 Ry

     iteration # 15     ecut=    30.00 Ry     beta= 0.30
     Davidson diagonalization with overlap
     ethr =  1.23E-03,  avg # of iterations =  1.4

     negative rho (up, down):  1.099E-01 0.000E+00

     total cpu time spent up to now is    18175.1 secs

     total energy              =    -447.81893017 Ry
     Harris-Foulkes estimate   =    -447.82582015 Ry
     estimated scf accuracy    <       0.83296317 Ry

     iteration # 16     ecut=    30.00 Ry     beta= 0.30
     Davidson diagonalization with overlap
     ethr =  7.64E-04,  avg # of iterations =  1.5

     negative rho (up, down):  1.107E-01 0.000E+00

     total cpu time spent up to now is    19203.3 secs

     total energy              =    -447.83447921 Ry
     Harris-Foulkes estimate   =    -447.83537500 Ry
     estimated scf accuracy    <       0.20606977 Ry

     iteration # 17     ecut=    30.00 Ry     beta= 0.30
     Davidson diagonalization with overlap
     c_bands:  2 eigenvalues not converged
     c_bands:  2 eigenvalues not converged
     c_bands:  3 eigenvalues not converged
     c_bands:  1 eigenvalues not converged
     ethr =  1.89E-04,  avg # of iterations =  6.8

     negative rho (up, down):  1.225E-01 0.000E+00

     total cpu time spent up to now is    20455.0 secs

     total energy              =    -447.83307705 Ry
     Harris-Foulkes estimate   =    -447.88660694 Ry
     estimated scf accuracy    <       3.15102135 Ry

     iteration # 18     ecut=    30.00 Ry     beta= 0.30
     Davidson diagonalization with overlap
     ethr =  1.89E-04,  avg # of iterations =  4.4

     negative rho (up, down):  1.154E-01 0.000E+00

     total cpu time spent up to now is    21547.2 secs

     total energy              =    -447.86129096 Ry
     Harris-Foulkes estimate   =    -447.87479135 Ry
     estimated scf accuracy    <       0.57368413 Ry

     iteration # 19     ecut=    30.00 Ry     beta= 0.30
     Davidson diagonalization with overlap
     ethr =  1.89E-04,  avg # of iterations =  1.6

     negative rho (up, down):  1.059E-01 0.000E+00

     total cpu time spent up to now is    22560.1 secs

     total energy              =    -447.87285878 Ry
     Harris-Foulkes estimate   =    -447.87171925 Ry
     estimated scf accuracy    <       1.03260394 Ry

     iteration # 20     ecut=    30.00 Ry     beta= 0.30
     Davidson diagonalization with overlap
     ethr =  1.89E-04,  avg # of iterations =  1.9

     negative rho (up, down):  8.974E-02 0.000E+00

     total cpu time spent up to now is    23601.9 secs

     total energy              =    -447.86069919 Ry
     Harris-Foulkes estimate   =    -447.89284214 Ry
     estimated scf accuracy    <       4.06816949 Ry

     iteration # 21     ecut=    30.00 Ry     beta= 0.30
     Davidson diagonalization with overlap
     ethr =  1.89E-04,  avg # of iterations =  1.1

     negative rho (up, down):  8.416E-02 0.000E+00

     total cpu time spent up to now is    24615.1 secs

     total energy              =    -447.86777317 Ry
     Harris-Foulkes estimate   =    -447.87261460 Ry
     estimated scf accuracy    <       0.41729948 Ry

     iteration # 22     ecut=    30.00 Ry     beta= 0.30
     Davidson diagonalization with overlap
     ethr =  1.89E-04,  avg # of iterations =  2.5

     negative rho (up, down):  8.729E-02 0.000E+00

     total cpu time spent up to now is    25647.4 secs

     total energy              =    -447.87369637 Ry
     Harris-Foulkes estimate   =    -447.87478182 Ry
     estimated scf accuracy    <       0.27120632 Ry

     iteration # 23     ecut=    30.00 Ry     beta= 0.30
     Davidson diagonalization with overlap
     ethr =  1.89E-04,  avg # of iterations =  1.0

     negative rho (up, down):  8.732E-02 0.000E+00

     total cpu time spent up to now is    26647.6 secs

     total energy              =    -447.87370275 Ry
     Harris-Foulkes estimate   =    -447.87404449 Ry
     estimated scf accuracy    <       0.14342042 Ry

     iteration # 24     ecut=    30.00 Ry     beta= 0.30
     Davidson diagonalization with overlap
     ethr =  1.32E-04,  avg # of iterations =  1.0

     negative rho (up, down):  8.404E-02 0.000E+00

     total cpu time spent up to now is    27645.7 secs

     total energy              =    -447.86998287 Ry
     Harris-Foulkes estimate   =    -447.87376563 Ry
     estimated scf accuracy    <       0.12306530 Ry

     iteration # 25     ecut=    30.00 Ry     beta= 0.30
     Davidson diagonalization with overlap
     ethr =  1.13E-04,  avg # of iterations =  1.5

     negative rho (up, down):  8.076E-02 0.000E+00

     total cpu time spent up to now is    28659.5 secs

     total energy              =    -447.87036917 Ry
     Harris-Foulkes estimate   =    -447.87152577 Ry
     estimated scf accuracy    <       0.04434844 Ry

     iteration # 26     ecut=    30.00 Ry     beta= 0.30
     Davidson diagonalization with overlap
     ethr =  4.07E-05,  avg # of iterations =  2.8

     negative rho (up, down):  7.834E-02 0.000E+00

     total cpu time spent up to now is    29716.5 secs

     total energy              =    -447.87170762 Ry
     Harris-Foulkes estimate   =    -447.87203456 Ry
     estimated scf accuracy    <       0.02866829 Ry

     iteration # 27     ecut=    30.00 Ry     beta= 0.30
     Davidson diagonalization with overlap
     ethr =  2.63E-05,  avg # of iterations =  1.0

     negative rho (up, down):  6.964E-02 0.000E+00

     total cpu time spent up to now is    30729.2 secs

     total energy              =    -447.87098791 Ry
     Harris-Foulkes estimate   =    -447.87195545 Ry
     estimated scf accuracy    <       0.00960564 Ry

     iteration # 28     ecut=    30.00 Ry     beta= 0.30
     Davidson diagonalization with overlap
     c_bands:  1 eigenvalues not converged
     c_bands:  3 eigenvalues not converged
     c_bands:  1 eigenvalues not converged
     c_bands:  1 eigenvalues not converged
     c_bands:  3 eigenvalues not converged
     c_bands:  1 eigenvalues not converged
     ethr =  8.81E-06,  avg # of iterations =  9.3

     negative rho (up, down):  5.152E-02 0.000E+00

     total cpu time spent up to now is    32017.8 secs

     total energy              =    -447.86817084 Ry
     Harris-Foulkes estimate   =    -447.87192141 Ry
     estimated scf accuracy    <       0.02175803 Ry

     iteration # 29     ecut=    30.00 Ry     beta= 0.30
     Davidson diagonalization with overlap
     ethr =  8.81E-06,  avg # of iterations =  6.4

     negative rho (up, down):  6.680E-02 0.000E+00

     total cpu time spent up to now is    33192.3 secs

     total energy              =    -447.86962436 Ry
     Harris-Foulkes estimate   =    -447.87041819 Ry
     estimated scf accuracy    <       0.14420060 Ry

     iteration # 30     ecut=    30.00 Ry     beta= 0.30
     Davidson diagonalization with overlap
     ethr =  8.81E-06,  avg # of iterations =  4.6

     negative rho (up, down):  6.814E-02 0.000E+00

     total cpu time spent up to now is    34309.0 secs

     total energy              =    -447.87100089 Ry
     Harris-Foulkes estimate   =    -447.87092314 Ry
     estimated scf accuracy    <       0.05236167 Ry

     iteration # 31     ecut=    30.00 Ry     beta= 0.30
     Davidson diagonalization with overlap
     ethr =  8.81E-06,  avg # of iterations =  1.0

     negative rho (up, down):  5.544E-02 0.000E+00

     total cpu time spent up to now is    35308.8 secs

     total energy              =    -447.86980533 Ry
     Harris-Foulkes estimate   =    -447.87103596 Ry
     estimated scf accuracy    <       0.05569599 Ry

     iteration # 32     ecut=    30.00 Ry     beta= 0.30
     Davidson diagonalization with overlap
     ethr =  8.81E-06,  avg # of iterations =  1.2

     negative rho (up, down):  4.957E-02 0.000E+00

     total cpu time spent up to now is    36327.1 secs

     total energy              =    -447.86955544 Ry
     Harris-Foulkes estimate   =    -447.87011416 Ry
     estimated scf accuracy    <       0.01025289 Ry

     iteration # 33     ecut=    30.00 Ry     beta= 0.30
     Davidson diagonalization with overlap
     ethr =  8.81E-06,  avg # of iterations =  1.0

     negative rho (up, down):  4.987E-02 0.000E+00

     total cpu time spent up to now is    37347.5 secs

     total energy              =    -447.86968073 Ry
     Harris-Foulkes estimate   =    -447.86960177 Ry
     estimated scf accuracy    <       0.00760595 Ry

     iteration # 34     ecut=    30.00 Ry     beta= 0.30
     Davidson diagonalization with overlap
     ethr =  6.98E-06,  avg # of iterations =  1.0

     negative rho (up, down):  3.561E-02 0.000E+00

     total cpu time spent up to now is    38367.6 secs

     total energy              =    -447.86763125 Ry
     Harris-Foulkes estimate   =    -447.86969295 Ry
     estimated scf accuracy    <       0.01014804 Ry

     iteration # 35     ecut=    30.00 Ry     beta= 0.30
     Davidson diagonalization with overlap
     ethr =  6.98E-06,  avg # of iterations =  3.5

     negative rho (up, down):  3.342E-02 0.000E+00

     total cpu time spent up to now is    39445.8 secs

     total energy              =    -447.86827026 Ry
     Harris-Foulkes estimate   =    -447.86837908 Ry
     estimated scf accuracy    <       0.14055009 Ry

     iteration # 36     ecut=    30.00 Ry     beta= 0.30
     Davidson diagonalization with overlap
     ethr =  6.98E-06,  avg # of iterations =  1.0

     negative rho (up, down):  3.759E-02 0.000E+00

     total cpu time spent up to now is    40463.1 secs

     total energy              =    -447.86823514 Ry
     Harris-Foulkes estimate   =    -447.86831496 Ry
     estimated scf accuracy    <       0.10477705 Ry

     iteration # 37     ecut=    30.00 Ry     beta= 0.30
     Davidson diagonalization with overlap
     ethr =  6.98E-06,  avg # of iterations =  1.0

     negative rho (up, down):  3.326E-02 0.000E+00

     total cpu time spent up to now is    41480.3 secs

     total energy              =    -447.86832880 Ry
     Harris-Foulkes estimate   =    -447.86834859 Ry
     estimated scf accuracy    <       0.03272519 Ry

     iteration # 38     ecut=    30.00 Ry     beta= 0.30
     Davidson diagonalization with overlap
     ethr =  6.98E-06,  avg # of iterations =  1.0

     negative rho (up, down):  3.649E-02 0.000E+00

     total cpu time spent up to now is    42506.1 secs

     total energy              =    -447.86870308 Ry
     Harris-Foulkes estimate   =    -447.86837919 Ry
     estimated scf accuracy    <       0.05809381 Ry

     iteration # 39     ecut=    30.00 Ry     beta= 0.30
     Davidson diagonalization with overlap
     ethr =  6.98E-06,  avg # of iterations =  1.0

     negative rho (up, down):  3.315E-02 0.000E+00

     total cpu time spent up to now is    43554.9 secs

     total energy              =    -447.86843125 Ry
     Harris-Foulkes estimate   =    -447.86871218 Ry
     estimated scf accuracy    <       0.05284987 Ry

     iteration # 40     ecut=    30.00 Ry     beta= 0.30
     Davidson diagonalization with overlap
     ethr =  6.98E-06,  avg # of iterations =  1.0

     negative rho (up, down):  3.359E-02 0.000E+00

     total cpu time spent up to now is    44577.6 secs

     total energy              =    -447.86765071 Ry
     Harris-Foulkes estimate   =    -447.86845306 Ry
     estimated scf accuracy    <       0.06940166 Ry

     iteration # 41     ecut=    30.00 Ry     beta= 0.30
     Davidson diagonalization with overlap
     ethr =  6.98E-06,  avg # of iterations =  1.0

     negative rho (up, down):  4.122E-02 0.000E+00

     total cpu time spent up to now is    45595.3 secs

     total energy              =    -447.86746208 Ry
     Harris-Foulkes estimate   =    -447.86771310 Ry
     estimated scf accuracy    <       0.06608074 Ry

     iteration # 42     ecut=    30.00 Ry     beta= 0.30
     Davidson diagonalization with overlap
     ethr =  6.98E-06,  avg # of iterations =  1.2

     negative rho (up, down):  4.814E-02 0.000E+00

     total cpu time spent up to now is    46609.0 secs

     total energy              =    -447.86780935 Ry
     Harris-Foulkes estimate   =    -447.86765397 Ry
     estimated scf accuracy    <       0.01898265 Ry

     iteration # 43     ecut=    30.00 Ry     beta= 0.30
     Davidson diagonalization with overlap
     ethr =  6.98E-06,  avg # of iterations =  1.3

     negative rho (up, down):  4.973E-02 0.000E+00

     total cpu time spent up to now is    47632.9 secs

     total energy              =    -447.86772602 Ry
     Harris-Foulkes estimate   =    -447.86789183 Ry
     estimated scf accuracy    <       0.02550753 Ry

     iteration # 44     ecut=    30.00 Ry     beta= 0.30
     Davidson diagonalization with overlap
     ethr =  6.98E-06,  avg # of iterations =  2.6

     negative rho (up, down):  3.479E-02 0.000E+00

     total cpu time spent up to now is    48741.3 secs

     total energy              =    -447.86692011 Ry
     Harris-Foulkes estimate   =    -447.86817182 Ry
     estimated scf accuracy    <       0.01697587 Ry

     iteration # 45     ecut=    30.00 Ry     beta= 0.30
     Davidson diagonalization with overlap
     ethr =  6.98E-06,  avg # of iterations =  2.0

     negative rho (up, down):  3.424E-02 0.000E+00

     total cpu time spent up to now is    49868.1 secs

     total energy              =    -447.86712955 Ry
     Harris-Foulkes estimate   =    -447.86732343 Ry
     estimated scf accuracy    <       0.02225558 Ry

     iteration # 46     ecut=    30.00 Ry     beta= 0.30
     Davidson diagonalization with overlap
     ethr =  6.98E-06,  avg # of iterations =  1.0

     negative rho (up, down):  3.140E-02 0.000E+00

     total cpu time spent up to now is    50897.3 secs

     total energy              =    -447.86691268 Ry
     Harris-Foulkes estimate   =    -447.86715072 Ry
     estimated scf accuracy    <       0.01716038 Ry

     iteration # 47     ecut=    30.00 Ry     beta= 0.30
     Davidson diagonalization with overlap
     ethr =  6.98E-06,  avg # of iterations =  1.0

     negative rho (up, down):  3.173E-02 0.000E+00

     total cpu time spent up to now is    51929.7 secs

     total energy              =    -447.86701533 Ry
     Harris-Foulkes estimate   =    -447.86702408 Ry
     estimated scf accuracy    <       0.00373701 Ry

     iteration # 48     ecut=    30.00 Ry     beta= 0.30
     Davidson diagonalization with overlap
     ethr =  3.43E-06,  avg # of iterations =  1.2

     negative rho (up, down):  3.154E-02 0.000E+00

     total cpu time spent up to now is    52957.7 secs

     total energy              =    -447.86711194 Ry
     Harris-Foulkes estimate   =    -447.86702705 Ry
     estimated scf accuracy    <       0.00259124 Ry

     iteration # 49     ecut=    30.00 Ry     beta= 0.30
     Davidson diagonalization with overlap
     ethr =  2.38E-06,  avg # of iterations =  2.0

     negative rho (up, down):  3.209E-02 0.000E+00

     total cpu time spent up to now is    54007.9 secs

     total energy              =    -447.86719408 Ry
     Harris-Foulkes estimate   =    -447.86716018 Ry
     estimated scf accuracy    <       0.00155708 Ry

     iteration # 50     ecut=    30.00 Ry     beta= 0.30
     Davidson diagonalization with overlap
     ethr =  1.43E-06,  avg # of iterations =  1.7

     negative rho (up, down):  3.311E-02 0.000E+00

     total cpu time spent up to now is    55057.7 secs

     total energy              =    -447.86706915 Ry
     Harris-Foulkes estimate   =    -447.86722210 Ry
     estimated scf accuracy    <       0.00168187 Ry

     iteration # 51     ecut=    30.00 Ry     beta= 0.30
     Davidson diagonalization with overlap
     ethr =  1.43E-06,  avg # of iterations =  1.3

     negative rho (up, down):  3.284E-02 0.000E+00

     total cpu time spent up to now is    56096.7 secs

     total energy              =    -447.86708423 Ry
     Harris-Foulkes estimate   =    -447.86709049 Ry
     estimated scf accuracy    <       0.00305270 Ry

     iteration # 52     ecut=    30.00 Ry     beta= 0.30
     Davidson diagonalization with overlap
     ethr =  1.43E-06,  avg # of iterations =  1.0

     negative rho (up, down):  2.230E-02 0.000E+00

     total cpu time spent up to now is    57135.1 secs

     total energy              =    -447.86661838 Ry
     Harris-Foulkes estimate   =    -447.86708609 Ry
     estimated scf accuracy    <       0.00298391 Ry

     iteration # 53     ecut=    30.00 Ry     beta= 0.30
     Davidson diagonalization with overlap
     ethr =  1.43E-06,  avg # of iterations =  2.0

     negative rho (up, down):  2.386E-02 0.000E+00

     total cpu time spent up to now is    58192.8 secs

     total energy              =    -447.86664661 Ry
     Harris-Foulkes estimate   =    -447.86671436 Ry
     estimated scf accuracy    <       0.00114289 Ry

     iteration # 54     ecut=    30.00 Ry     beta= 0.30
     Davidson diagonalization with overlap
     ethr =  1.05E-06,  avg # of iterations =  1.3

     negative rho (up, down):  2.153E-02 0.000E+00

     total cpu time spent up to now is    59229.4 secs

     total energy              =    -447.86661737 Ry
     Harris-Foulkes estimate   =    -447.86667365 Ry
     estimated scf accuracy    <       0.00121793 Ry

     iteration # 55     ecut=    30.00 Ry     beta= 0.30
     Davidson diagonalization with overlap
     ethr =  1.05E-06,  avg # of iterations =  1.0

     negative rho (up, down):  1.778E-02 0.000E+00

     total cpu time spent up to now is    60264.4 secs

     total energy              =    -447.86651043 Ry
     Harris-Foulkes estimate   =    -447.86662986 Ry
     estimated scf accuracy    <       0.00056286 Ry

     iteration # 56     ecut=    30.00 Ry     beta= 0.30
     Davidson diagonalization with overlap
     ethr =  5.16E-07,  avg # of iterations =  1.4

     negative rho (up, down):  1.537E-02 0.000E+00

     total cpu time spent up to now is    61291.2 secs

     total energy              =    -447.86643740 Ry
     Harris-Foulkes estimate   =    -447.86651904 Ry
     estimated scf accuracy    <       0.00036603 Ry

     iteration # 57     ecut=    30.00 Ry     beta= 0.30
     Davidson diagonalization with overlap
     ethr =  3.36E-07,  avg # of iterations =  2.2

     negative rho (up, down):  1.304E-02 0.000E+00

     total cpu time spent up to now is    62368.0 secs

     total energy              =    -447.86636766 Ry
     Harris-Foulkes estimate   =    -447.86644816 Ry
     estimated scf accuracy    <       0.00041413 Ry

     iteration # 58     ecut=    30.00 Ry     beta= 0.30
     Davidson diagonalization with overlap
     ethr =  3.36E-07,  avg # of iterations =  3.4

     negative rho (up, down):  1.226E-02 0.000E+00

     total cpu time spent up to now is    63556.1 secs

     total energy              =    -447.86635574 Ry
     Harris-Foulkes estimate   =    -447.86638738 Ry
     estimated scf accuracy    <       0.00124829 Ry

     iteration # 59     ecut=    30.00 Ry     beta= 0.30
     Davidson diagonalization with overlap
     ethr =  3.36E-07,  avg # of iterations =  1.0

     negative rho (up, down):  1.009E-02 0.000E+00

     total cpu time spent up to now is    64702.4 secs

     total energy              =    -447.86628017 Ry
     Harris-Foulkes estimate   =    -447.86635994 Ry
     estimated scf accuracy    <       0.00035941 Ry

     iteration # 60     ecut=    30.00 Ry     beta= 0.30
     Davidson diagonalization with overlap
     ethr =  3.30E-07,  avg # of iterations =  1.0

     negative rho (up, down):  1.034E-02 0.000E+00

     total cpu time spent up to now is    65794.6 secs

     total energy              =    -447.86627373 Ry
     Harris-Foulkes estimate   =    -447.86628347 Ry
     estimated scf accuracy    <       0.00024012 Ry

     iteration # 61     ecut=    30.00 Ry     beta= 0.30
     Davidson diagonalization with overlap
     ethr =  2.20E-07,  avg # of iterations =  1.1

     negative rho (up, down):  1.119E-02 0.000E+00

     total cpu time spent up to now is    66828.6 secs

     total energy              =    -447.86627765 Ry
     Harris-Foulkes estimate   =    -447.86627497 Ry
     estimated scf accuracy    <       0.00019007 Ry

     iteration # 62     ecut=    30.00 Ry     beta= 0.30
     Davidson diagonalization with overlap
     ethr =  1.74E-07,  avg # of iterations =  2.0

     negative rho (up, down):  7.817E-03 0.000E+00

     total cpu time spent up to now is    67880.8 secs

     total energy              =    -447.86622668 Ry
     Harris-Foulkes estimate   =    -447.86628078 Ry
     estimated scf accuracy    <       0.00013250 Ry

     iteration # 63     ecut=    30.00 Ry     beta= 0.30
     Davidson diagonalization with overlap
     ethr =  1.22E-07,  avg # of iterations =  3.0

     negative rho (up, down):  8.941E-03 0.000E+00

     total cpu time spent up to now is    68952.5 secs

     total energy              =    -447.86624472 Ry
     Harris-Foulkes estimate   =    -447.86623415 Ry
     estimated scf accuracy    <       0.00025745 Ry

     iteration # 64     ecut=    30.00 Ry     beta= 0.30
     Davidson diagonalization with overlap
     ethr =  1.22E-07,  avg # of iterations =  1.0

     negative rho (up, down):  8.741E-03 0.000E+00

     total cpu time spent up to now is    69994.9 secs

     total energy              =    -447.86624573 Ry
     Harris-Foulkes estimate   =    -447.86624684 Ry
     estimated scf accuracy    <       0.00018232 Ry

     iteration # 65     ecut=    30.00 Ry     beta= 0.30
     Davidson diagonalization with overlap
     ethr =  1.22E-07,  avg # of iterations =  1.0

     negative rho (up, down):  9.832E-03 0.000E+00

     total cpu time spent up to now is    71030.3 secs

     total energy              =    -447.86623956 Ry
     Harris-Foulkes estimate   =    -447.86624600 Ry
     estimated scf accuracy    <       0.00019895 Ry

     iteration # 66     ecut=    30.00 Ry     beta= 0.30
     Davidson diagonalization with overlap
     ethr =  1.22E-07,  avg # of iterations =  1.4

     negative rho (up, down):  9.515E-03 0.000E+00

     total cpu time spent up to now is    72065.7 secs

     total energy              =    -447.86621547 Ry
     Harris-Foulkes estimate   =    -447.86624198 Ry
     estimated scf accuracy    <       0.00010789 Ry

     iteration # 67     ecut=    30.00 Ry     beta= 0.30
     Davidson diagonalization with overlap
     ethr =  9.90E-08,  avg # of iterations =  2.9

     negative rho (up, down):  7.846E-03 0.000E+00

     total cpu time spent up to now is    73163.0 secs

     total energy              =    -447.86618712 Ry
     Harris-Foulkes estimate   =    -447.86622079 Ry
     estimated scf accuracy    <       0.00017465 Ry

     iteration # 68     ecut=    30.00 Ry     beta= 0.30
     Davidson diagonalization with overlap
     ethr =  9.90E-08,  avg # of iterations =  2.2

     negative rho (up, down):  6.759E-03 0.000E+00

     total cpu time spent up to now is    74255.7 secs

     total energy              =    -447.86613782 Ry
     Harris-Foulkes estimate   =    -447.86619013 Ry
     estimated scf accuracy    <       0.00006894 Ry

     iteration # 69     ecut=    30.00 Ry     beta= 0.30
     Davidson diagonalization with overlap
     ethr =  6.32E-08,  avg # of iterations =  2.5

     negative rho (up, down):  5.577E-03 0.000E+00

     total cpu time spent up to now is    75351.0 secs

     total energy              =    -447.86612729 Ry
     Harris-Foulkes estimate   =    -447.86614011 Ry
     estimated scf accuracy    <       0.00007248 Ry

     iteration # 70     ecut=    30.00 Ry     beta= 0.30
     Davidson diagonalization with overlap
     ethr =  6.32E-08,  avg # of iterations =  1.0

     negative rho (up, down):  4.484E-03 0.000E+00

     total cpu time spent up to now is    76476.2 secs

     total energy              =    -447.86611563 Ry
     Harris-Foulkes estimate   =    -447.86612777 Ry
     estimated scf accuracy    <       0.00004965 Ry

     iteration # 71     ecut=    30.00 Ry     beta= 0.30
     Davidson diagonalization with overlap
     ethr =  4.56E-08,  avg # of iterations =  1.0

     negative rho (up, down):  8.960E-05 0.000E+00

     total cpu time spent up to now is    77498.4 secs

     End of self-consistent calculation

          k = 0.0000 0.0000 0.0000 ( 44015 PWs)   bands (ev):

    -9.3944  -9.3279  -9.3016  -9.2652  -9.2202  -9.1723  -9.1268  -9.0879
    -9.0633  -5.1548  -3.6083  -3.5781  -3.5628  -3.5628  -3.5627  -3.5586
    -3.5586  -3.5565  -3.5506  -3.5506  -3.5467  -3.5369  -3.5369  -3.5317
    -3.5194  -3.5194  -3.5135  -3.4991  -3.4991  -3.4951  -3.4893  -3.4793
    -3.4793  -3.4760  -3.4660  -3.4660  -3.4651  -3.4434  -3.4434  -3.3094
    -3.0815  -3.0417  -3.0417  -3.0391  -3.0246  -3.0246  -3.0171  -2.9993
    -2.9993  -2.9887  -2.9697  -2.9697  -2.9560  -2.9414  -2.9414  -2.9265
    -2.9171  -2.9171  -2.9033  -2.8992  -2.8992  -2.8871  -2.8863  -2.8863
    -2.8806  -2.8806

          k = 0.0000 0.0577 0.0000 ( 44017 PWs)   bands (ev):

    -9.3795  -9.3127  -9.2864  -9.2499  -9.2050  -9.1571  -9.1116  -9.0726
    -9.0481  -5.1906  -3.9780  -3.9594  -3.9316  -3.8956  -3.8570  -3.8198
    -3.7896  -3.7662  -3.7504  -3.7193  -3.7186  -3.7035  -3.7006  -3.6796
    -3.6752  -3.6485  -3.6434  -3.6154  -3.6113  -3.5964  -3.5830  -3.5766
    -3.5557  -3.5508  -3.5371  -3.5342  -3.5272  -3.5244  -3.4485  -3.2741
    -3.0469  -2.9250  -2.9233  -2.9085  -2.9030  -2.8832  -2.8749  -2.8510
    -2.8403  -2.8166  -2.8081  -2.7881  -2.7821  -2.7606  -2.7517  -2.7306
    -2.7260  -2.7111  -2.7097  -2.6974  -2.6847  -2.6611  -2.6304  -2.5940
    -2.5551  -2.5191

          k = 0.0000 0.1155 0.0000 ( 44021 PWs)   bands (ev):

    -9.3348  -9.2669  -9.2407  -9.2043  -9.1594  -9.1114  -9.0659  -9.0269
    -9.0024  -5.3047  -4.4977  -4.4768  -4.4459  -4.4056  -4.3615  -4.3177
    -4.2794  -4.2544  -4.2010  -3.9348  -3.9340  -3.9172  -3.9136  -3.8901
    -3.8839  -3.8545  -3.8458  -3.8159  -3.8047  -3.7773  -3.7649  -3.7444
    -3.7308  -3.7202  -3.7094  -3.7061  -3.6024  -3.5326  -3.4022  -3.2099
    -2.9683  -2.7124  -2.6520  -2.6502  -2.6345  -2.6285  -2.6073  -2.5979
    -2.5720  -2.5591  -2.5336  -2.5177  -2.4948  -2.4787  -2.4609  -2.4517
    -2.4345  -2.4331  -2.4163  -2.4154  -2.2022  -2.1084  -2.0925  -2.0696
    -2.0397  -2.0032

          k = 0.0000 0.1732 0.0000 ( 44034 PWs)   bands (ev):

    -9.2603  -9.1907  -9.1645  -9.1282  -9.0833  -9.0353  -8.9898  -8.9508
    -8.9263  -5.5124  -5.0043  -4.9822  -4.9498  -4.9079  -4.8623  -4.8178
    -4.7792  -4.7546  -4.5517  -4.1404  -4.1394  -4.1222  -4.1181  -4.0941
    -4.0868  -4.0571  -4.0467  -4.0169  -4.0032  -3.9765  -3.9611  -3.9418
    -3.9250  -3.9154  -3.9022  -3.8994  -3.6198  -3.4646  -3.3285  -3.1272
    -2.8720  -2.5892  -2.3308  -2.3138  -2.3112  -2.2959  -2.2884  -2.2682
    -2.2573  -2.2320  -2.2177  -2.1927  -2.1752  -2.1531  -2.1341  -2.1187
    -2.0985  -2.0907  -2.0760  -2.0732  -2.0613  -1.7870  -1.5517  -1.4817
    -1.4686  -1.4442

          k = 0.0000 0.2309 0.0000 ( 43964 PWs)   bands (ev):

    -9.1564  -9.0841  -9.0580  -9.0217  -8.9768  -8.9289  -8.8834  -8.8444
    -8.8199  -5.8119  -5.4877  -5.4648  -5.4315  -5.3886  -5.3423  -5.2975
    -5.2590  -5.2349  -4.8012  -4.3235  -4.3224  -4.3050  -4.3005  -4.2764
    -4.2685  -4.2388  -4.2274  -4.1978  -4.1829  -4.1566  -4.1398  -4.1211
    -4.1029  -4.0939  -4.0798  -4.0772  -3.6056  -3.3629  -3.2263  -3.0214
    -2.7591  -2.4595  -2.1593  -1.9369  -1.9369  -1.9237  -1.9189  -1.9059
    -1.8912  -1.8776  -1.8550  -1.8392  -1.8155  -1.7971  -1.7761  -1.7564
    -1.7419  -1.7209  -1.7141  -1.6985  -1.6966  -1.6573  -1.4268  -0.9573
    -0.8090  -0.7867

          k = 0.0000 0.2887 0.0000 ( 43914 PWs)   bands (ev):

    -9.0232  -8.9472  -8.9212  -8.8850  -8.8401  -8.7922  -8.7466  -8.7077
    -8.6832  -6.1667  -5.9450  -5.9215  -5.8875  -5.8441  -5.7973  -5.7524
    -5.7138  -5.6897  -4.9735  -4.4806  -4.4794  -4.4618  -4.4571  -4.4330
    -4.4247  -4.3951  -4.3832  -4.3538  -4.3382  -4.3122  -4.2946  -4.2763
    -4.2573  -4.2485  -4.2339  -4.2314  -3.5620  -3.2311  -3.0953  -2.8895
    -2.6244  -2.3178  -1.9953  -1.7091  -1.5292  -1.5285  -1.5113  -1.5108
    -1.4934  -1.4837  -1.4694  -1.4475  -1.4321  -1.4083  -1.3903  -1.3692
    -1.3500  -1.3355  -1.3153  -1.3085  -1.2938  -1.2914  -1.2868  -0.6538
    -0.3054  -0.2138

          k = 0.0000 0.3464 0.0000 ( 43922 PWs)   bands (ev):

    -8.8615  -8.7801  -8.7543  -8.7181  -8.6733  -8.6254  -8.5798  -8.5408
    -8.5163  -6.5373  -6.3752  -6.3510  -6.3164  -6.2727  -6.2257  -6.1807
    -6.1421  -6.1179  -5.0977  -4.6102  -4.6089  -4.5913  -4.5865  -4.5623
    -4.5538  -4.5243  -4.5119  -4.4826  -4.4665  -4.4407  -4.4226  -4.4045
    -4.3850  -4.3764  -4.3613  -4.3589  -3.4976  -3.0696  -2.9355  -2.7305
    -2.4654  -2.1572  -1.8279  -1.5162  -1.2790  -1.1169  -1.0932  -1.0916
    -1.0757  -1.0702  -1.0484  -1.0397  -1.0128  -1.0006  -0.9743  -0.9586
    -0.9357  -0.9181  -0.9027  -0.8835  -0.8765  -0.8618  -0.8599  -0.7369
    -0.6665  -0.5467

          k = 0.0000 0.4041 0.0000 ( 43890 PWs)   bands (ev):

    -8.6724  -8.5829  -8.5573  -8.5213  -8.4765  -8.4286  -8.3830  -8.3440
    -8.3194  -6.9006  -6.7772  -6.7527  -6.7176  -6.6736  -6.6264  -6.5813
    -6.5428  -6.5186  -5.1885  -4.7114  -4.7102  -4.6926  -4.6876  -4.6635
    -4.6548  -4.6252  -4.6126  -4.5834  -4.5669  -4.5412  -4.5227  -4.5047
    -4.4849  -4.4764  -4.4612  -4.4588  -3.4234  -2.8787  -2.7470  -2.5444
    -2.2815  -1.9759  -1.6505  -1.3450  -1.1331  -1.0951  -0.9922  -0.9241
    -0.8037  -0.6330  -0.6327  -0.6176  -0.6155  -0.6014  -0.5886  -0.5767
    -0.5535  -0.5406  -0.5155  -0.5007  -0.4779  -0.4621  -0.4458  -0.4286
    -0.4203  -0.4071

          k = 0.0000 0.4619 0.0000 ( 43856 PWs)   bands (ev):

    -8.4586  -8.3558  -8.3305  -8.2947  -8.2499  -8.2021  -8.1564  -8.1173
    -8.0926  -7.2432  -7.1510  -7.1258  -7.0903  -7.0462  -6.9989  -6.9539
    -6.9154  -6.8911  -5.2518  -4.7840  -4.7827  -4.7651  -4.7601  -4.7359
    -4.7270  -4.6975  -4.6847  -4.6556  -4.6389  -4.6133  -4.5946  -4.5767
    -4.5566  -4.5482  -4.5328  -4.5304  -3.3530  -2.6586  -2.5301  -2.3317
    -2.0745  -1.7800  -1.5069  -1.4657  -1.3613  -1.2329  -1.1157  -0.9703
    -0.8412  -0.7269  -0.5693  -0.3038  -0.1524  -0.1517  -0.1353  -0.1332
    -0.1088  -0.1082  -0.0831  -0.0747  -0.0557  -0.0379  -0.0196  -0.0007
     0.0179   0.0319

          k = 0.0000 0.5196 0.0000 ( 43904 PWs)   bands (ev):

    -8.2313  -8.0990  -8.0742  -8.0389  -7.9943  -7.9464  -7.9005  -7.8611
    -7.8363  -7.5495  -7.4956  -7.4695  -7.4337  -7.3895  -7.3424  -7.2976
    -7.2593  -7.2352  -5.2894  -4.8276  -4.8264  -4.8087  -4.8037  -4.7795
    -4.7706  -4.7410  -4.7281  -4.6989  -4.6820  -4.6565  -4.6378  -4.6200
    -4.5998  -4.5914  -4.5760  -4.5736  -3.3017  -2.4095  -2.2857  -2.0955
    -1.8629  -1.8173  -1.7099  -1.5937  -1.4883  -1.3291  -1.1879  -1.0308
    -0.8633  -0.7233  -0.5450  -0.4740  -0.2257   0.0176   0.1474   0.3313
     0.3324   0.3476   0.3511   0.3724   0.3785   0.4043   0.4130   0.4376
     0.4488   0.4704

          k = 0.0000-0.5774 0.0000 ( 43922 PWs)   bands (ev):

    -8.0807  -7.8153  -7.8127  -7.7976  -7.7884  -7.7687  -7.7535  -7.7305
    -7.7088  -7.6878  -7.6607  -7.6444  -7.6148  -7.6046  -7.5752  -7.5709
    -7.5504  -7.5493  -5.3019  -4.8422  -4.8409  -4.8233  -4.8182  -4.7941
    -4.7851  -4.7556  -4.7426  -4.7134  -4.6965  -4.6711  -4.6523  -4.6345
    -4.6142  -4.6058  -4.5904  -4.5881  -3.2828  -2.1376  -2.1277  -2.0339
    -1.9979  -1.8653  -1.7949  -1.6370  -1.5274  -1.3615  -1.2123  -1.0535
    -0.8696  -0.7354  -0.5304  -0.4387  -0.2520  -0.2162   0.1383   0.6829
     0.6832   0.6916   0.6926   0.7025   0.7050   0.7155   0.7211   0.7301
     0.7381   0.7484

          k = 0.0500 0.0866 0.0000 ( 44009 PWs)   bands (ev):

    -9.3497  -9.2822  -9.2559  -9.2195  -9.1746  -9.1266  -9.0811  -9.0422
    -9.0177  -5.2643  -4.2286  -4.2265  -4.2126  -4.2055  -4.1862  -4.1746
    -4.1513  -4.1344  -4.1127  -4.0909  -4.0732  -4.0485  -4.0373  -4.0117
    -4.0067  -3.9887  -3.9874  -3.7801  -3.5596  -3.5202  -3.5159  -3.5082
    -3.4952  -3.4787  -3.4594  -3.4414  -3.4346  -3.4267  -3.4197  -3.2473
    -3.0260  -2.9950  -2.9731  -2.9448  -2.9127  -2.8833  -2.8599  -2.8438
    -2.8369  -2.8023  -2.6025  -2.4085  -2.4005  -2.3957  -2.3841  -2.3727
    -2.3573  -2.3414  -2.3222  -2.3019  -2.2835  -2.2595  -2.2444  -2.2190
    -2.2089  -2.1837

          k = 0.0500 0.1443 0.0000 ( 44024 PWs)   bands (ev):

    -9.2901  -9.2212  -9.1950  -9.1586  -9.1137  -9.0658  -9.0202  -8.9813
    -8.9568  -5.4186  -4.7429  -4.7216  -4.6902  -4.6494  -4.6051  -4.5615
    -4.5236  -4.4981  -4.4829  -4.4526  -4.4292  -4.3969  -4.3562  -4.3122
    -4.2697  -4.2330  -4.2098  -3.9249  -3.6325  -3.6157  -3.5913  -3.5600
    -3.5280  -3.5063  -3.4922  -3.4673  -3.4504  -3.4415  -3.3602  -3.1728
    -2.9413  -2.8358  -2.8157  -2.7880  -2.7543  -2.7229  -2.6988  -2.6716
    -2.6428  -2.6239  -2.4850  -2.2205  -2.0655  -2.0497  -2.0275  -1.9995
    -1.9640  -1.9240  -1.8848  -1.8505  -1.8280  -1.8144  -1.7836  -1.7665
    -1.7441  -1.7149

          k = 0.0500 0.2021 0.0000 ( 44004 PWs)   bands (ev):

    -9.2009  -9.1298  -9.1036  -9.0673  -9.0224  -8.9745  -8.9290  -8.8900
    -8.8655  -5.6628  -5.2381  -5.2158  -5.1830  -5.1408  -5.0948  -5.0501
    -5.0113  -4.9868  -4.8073  -4.6544  -4.6317  -4.5990  -4.5574  -4.5123
    -4.4687  -4.4313  -4.4078  -4.0475  -3.8039  -3.7838  -3.7545  -3.7168
    -3.6761  -3.6367  -3.6025  -3.5809  -3.5076  -3.4048  -3.2706  -3.0713
    -2.8203  -2.5625  -2.5200  -2.4984  -2.4683  -2.4302  -2.3899  -2.3522
    -2.3249  -2.3046  -2.2871  -2.0800  -1.8062  -1.6984  -1.6811  -1.6587
    -1.6315  -1.5965  -1.5565  -1.5176  -1.4838  -1.4641  -1.4587  -1.1905
    -1.1323  -1.1087

          k = 0.0500 0.2598 0.0000 ( 43975 PWs)   bands (ev):

    -9.0823  -9.0080  -8.9820  -8.9458  -8.9009  -8.8530  -8.8074  -8.7684
    -8.7439  -5.9849  -5.7087  -5.6855  -5.6519  -5.6088  -5.5622  -5.5173
    -5.4788  -5.4545  -5.0380  -4.8282  -4.8053  -4.7723  -4.7302  -4.6847
    -4.6408  -4.6031  -4.5793  -4.1649  -3.9651  -3.9437  -3.9125  -3.8726
    -3.8296  -3.7880  -3.7521  -3.7298  -3.5125  -3.2894  -3.1537  -2.9499
    -2.6892  -2.3960  -2.1464  -2.1359  -2.1141  -2.0841  -2.0459  -2.0046
    -1.9645  -1.9298  -1.9074  -1.8967  -1.6409  -1.4054  -1.3145  -1.3001
    -1.2768  -1.2454  -1.2062  -1.1642  -1.1244  -1.0903  -1.0690  -0.7135
    -0.4593  -0.4335

          k = 0.0500 0.3175 0.0000 ( 43954 PWs)   bands (ev):

    -8.9349  -8.8560  -8.8301  -8.7940  -8.7491  -8.7012  -8.6556  -8.6166
    -8.5921  -6.3459  -6.1524  -6.1286  -6.0944  -6.0509  -6.0040  -5.9589
    -5.9203  -5.8961  -5.2012  -4.9737  -4.9507  -4.9174  -4.8750  -4.8292
    -4.7851  -4.7471  -4.7233  -4.2736  -4.1040  -4.0817  -4.0497  -4.0088
    -3.9649  -3.9225  -3.8861  -3.8632  -3.4784  -3.1429  -3.0082  -2.8035
    -2.5397  -2.2355  -1.9233  -1.7242  -1.7081  -1.6868  -1.6606  -1.6254
    -1.5851  -1.5455  -1.5109  -1.4886  -1.4555  -1.2294  -1.0391  -0.8799
    -0.8586  -0.8281  -0.7892  -0.7475  -0.7073  -0.6728  -0.6512  -0.5445
    -0.4864  -0.3662

          k = 0.0500 0.3753 0.0000 ( 43872 PWs)   bands (ev):

    -8.7593  -8.6739  -8.6482  -8.6121  -8.5673  -8.5194  -8.4738  -8.4348
    -8.4102  -6.7123  -6.5686  -6.5442  -6.5095  -6.4656  -6.4185  -6.3734
    -6.3348  -6.3106  -5.3198  -5.0903  -5.0672  -5.0339  -4.9913  -4.9452
    -4.9009  -4.8629  -4.8389  -4.3669  -4.2168  -4.1941  -4.1615  -4.1202
    -4.0757  -4.0329  -3.9962  -3.9732  -3.4197  -2.9668  -2.8340  -2.6305
    -2.3670  -2.0611  -1.7368  -1.4402  -1.2762  -1.2584  -1.2360  -1.2135
    -1.1809  -1.1413  -1.1020  -1.0679  -1.0460  -1.0346  -0.9360  -0.8804
    -0.7626  -0.5881  -0.4341  -0.4172  -0.3961  -0.3730  -0.3400  -0.3018
    -0.2643  -0.2319

          k = 0.0500 0.4330 0.0000 ( 43856 PWs)   bands (ev):

    -8.5574  -8.4617  -8.4362  -8.4003  -8.3556  -8.3077  -8.2621  -8.2230
    -8.1984  -7.0654  -6.9565  -6.9316  -6.8964  -6.8523  -6.8051  -6.7601
    -6.7215  -6.6972  -5.4047  -5.1781  -5.1548  -5.1213  -5.0786  -5.0325
    -4.9881  -4.9499  -4.9259  -4.4399  -4.3022  -4.2792  -4.2463  -4.2046
    -4.1597  -4.1167  -4.0799  -4.0569  -3.3527  -2.7613  -2.6312  -2.4307
    -2.1706  -1.8696  -1.5545  -1.3076  -1.2637  -1.1644  -1.0414  -0.9459
    -0.8237  -0.8051  -0.7889  -0.7671  -0.7425  -0.7108  -0.6734  -0.6361
    -0.6034  -0.5819  -0.5694  -0.3588  -0.0904   0.0343   0.0534   0.0802
     0.1095   0.1385

          k = 0.0500 0.4907 0.0000 ( 43831 PWs)   bands (ev):

    -8.3343  -8.2198  -8.1946  -8.1590  -8.1144  -8.0665  -8.0207  -7.9815
    -7.9568  -7.3921  -7.3157  -7.2902  -7.2546  -7.2104  -7.1631  -7.1182
    -7.0797  -7.0555  -5.4602  -5.2366  -5.2133  -5.1798  -5.1370  -5.0907
    -5.0462  -5.0080  -4.9841  -4.4899  -4.3595  -4.3364  -4.3032  -4.2613
    -4.2162  -4.1732  -4.1363  -4.1132  -3.2939  -2.5266  -2.4004  -2.2054
    -1.9544  -1.6855  -1.6384  -1.5307  -1.4062  -1.2947  -1.1399  -0.9970
    -0.8450  -0.6978  -0.5961  -0.4153  -0.3174  -0.2998  -0.2748  -0.2450
    -0.2158  -0.1845  -0.1525  -0.1234  -0.1051  -0.0251   0.1949   0.3127
     0.3950   0.4744

          k = 0.0500 0.5485 0.0000 ( 43888 PWs)   bands (ev):

    -8.1195  -7.9484  -7.9242  -7.8895  -7.8455  -7.7980  -7.7521  -7.7125
    -7.6867  -7.6602  -7.6435  -7.6166  -7.5811  -7.5378  -7.4913  -7.4470
    -7.4090  -7.3850  -5.4877  -5.2659  -5.2426  -5.2091  -5.1662  -5.1198
    -5.0753  -5.0372  -5.0132  -4.5153  -4.3883  -4.3650  -4.3318  -4.2898
    -4.2447  -4.2015  -4.1645  -4.1414  -3.2593  -2.2633  -2.1437  -1.9805
    -1.9537  -1.8543  -1.7371  -1.6439  -1.4837  -1.3569  -1.1927  -1.0293
    -0.8781  -0.6895  -0.5709  -0.3805  -0.3195  -0.0968   0.0640   0.1448
     0.1603   0.1816   0.2084   0.2361   0.2624   0.2848   0.2988   0.3156
     0.3737   0.4880

          k = 0.1000 0.1732 0.0000 ( 44007 PWs)   bands (ev):

    -9.2157  -9.1450  -9.1189  -9.0825  -9.0377  -8.9897  -8.9442  -8.9052
    -8.8807  -5.5965  -4.9625  -4.9602  -4.9456  -4.9378  -4.9181  -4.9051
    -4.8817  -4.8627  -4.8411  -4.8169  -4.7997  -4.7727  -4.7619  -4.7345
    -4.7298  -4.7107  -4.7095  -4.0021  -3.4277  -3.3925  -3.3883  -3.3804
    -3.3674  -3.3510  -3.3318  -3.3141  -3.3039  -3.2989  -3.2924  -3.1137
    -2.8931  -2.8630  -2.8412  -2.8129  -2.7809  -2.7517  -2.7285  -2.7126
    -2.7058  -2.6673  -2.4190  -2.1112  -1.8004  -1.5724  -1.4525  -1.4318
    -1.4288  -1.4154  -1.4060  -1.3888  -1.3743  -1.3540  -1.3342  -1.3158
    -1.2916  -1.2772

          k = 0.1000 0.2309 0.0000 ( 43999 PWs)   bands (ev):

    -9.1119  -9.0385  -9.0124  -8.9761  -8.9313  -8.8833  -8.8378  -8.7988
    -8.7743  -5.8435  -5.4437  -5.4214  -5.3888  -5.3467  -5.3011  -5.2566
    -5.2178  -5.1924  -5.1713  -5.1481  -5.1230  -5.0892  -5.0473  -5.0023
    -4.9591  -4.9219  -4.8985  -4.0406  -3.4606  -3.4440  -3.4198  -3.3889
    -3.3569  -3.3314  -3.3202  -3.2967  -3.2799  -3.2707  -3.1858  -2.9969
    -2.7647  -2.6614  -2.6414  -2.6138  -2.5802  -2.5486  -2.5247  -2.4982
    -2.4698  -2.4513  -2.3011  -1.9999  -1.6794  -1.4117  -1.2211  -1.0486
    -1.0271  -0.9962  -0.9571  -0.9153  -0.8751  -0.8405  -0.8182  -0.7930
    -0.7657  -0.7418

          k = 0.1000 0.2887 0.0000 ( 43971 PWs)   bands (ev):

    -8.9790  -8.9016  -8.8757  -8.8395  -8.7946  -8.7467  -8.7011  -8.6622
    -8.6376  -6.1585  -5.9007  -5.8775  -5.8438  -5.8006  -5.7539  -5.7088
    -5.6700  -5.6456  -5.4086  -5.3104  -5.2863  -5.2523  -5.2096  -5.1637
    -5.1197  -5.0820  -5.0583  -4.0741  -3.5880  -3.5683  -3.5394  -3.5022
    -3.4618  -3.4225  -3.3884  -3.3667  -3.3027  -3.1853  -3.0526  -2.8537
    -2.6022  -2.3443  -2.3045  -2.2830  -2.2531  -2.2154  -2.1753  -2.1376
    -2.1096  -2.0903  -2.0734  -1.8552  -1.5446  -1.2771  -1.0080  -0.6409
    -0.6201  -0.5899  -0.5512  -0.5099  -0.4701  -0.4357  -0.4139  -0.3518
    -0.2608  -0.1692

          k = 0.1000 0.3464 0.0000 ( 43932 PWs)   bands (ev):

    -8.8176  -8.7346  -8.7088  -8.6727  -8.6279  -8.5799  -8.5344  -8.4954
    -8.4708  -6.5098  -6.3306  -6.3067  -6.2723  -6.2287  -6.1816  -6.1364
    -6.0977  -6.0735  -5.5721  -5.4427  -5.4187  -5.3847  -5.3417  -5.2955
    -5.2513  -5.2133  -5.1895  -4.1124  -3.7051  -3.6842  -3.6537  -3.6144
    -3.5716  -3.5300  -3.4942  -3.4717  -3.2927  -3.0252  -2.8923  -2.6906
    -2.4315  -2.1390  -1.8898  -1.8797  -1.8587  -1.8294  -1.7918  -1.7510
    -1.7112  -1.6767  -1.6543  -1.6408  -1.3820  -1.1251  -0.9214  -0.6759
    -0.5547  -0.3761  -0.2110  -0.1926  -0.1713  -0.1508  -0.1166  -0.0781
    -0.0400  -0.0054

          k = 0.1000 0.4041 0.0000 ( 43876 PWs)   bands (ev):

    -8.6288  -8.5375  -8.5119  -8.4759  -8.4311  -8.3832  -8.3376  -8.2986
    -8.2740  -6.8644  -6.7325  -6.7081  -6.6732  -6.6292  -6.5820  -6.5368
    -6.4982  -6.4740  -5.6866  -5.5457  -5.5217  -5.4876  -5.4444  -5.3981
    -5.3537  -5.3157  -5.2918  -4.1526  -3.8001  -3.7786  -3.7473  -3.7069
    -3.6632  -3.6208  -3.5843  -3.5615  -3.2564  -2.8345  -2.7036  -2.5028
    -2.2430  -1.9437  -1.6357  -1.4305  -1.4139  -1.3924  -1.3685  -1.3354
    -1.2962  -1.2572  -1.2229  -1.2007  -1.1658  -1.0844  -1.0176  -0.9297
    -0.8656  -0.7077  -0.4743  -0.2032   0.0591   0.0946   0.1756   0.2336
     0.2724   0.3014

          k = 0.1000 0.4619 0.0000 ( 43806 PWs)   bands (ev):

    -8.4157  -8.3105  -8.2851  -8.2493  -8.2047  -8.1568  -8.1111  -8.0720
    -8.0473  -7.2028  -7.1061  -7.0810  -7.0456  -7.0015  -6.9542  -6.9092
    -6.8706  -6.8464  -5.7640  -5.6194  -5.5954  -5.5611  -5.5179  -5.4714
    -5.4270  -5.3889  -5.3650  -4.1875  -3.8692  -3.8472  -3.8155  -3.7746
    -3.7304  -3.6878  -3.6511  -3.6281  -3.2096  -2.6145  -2.4867  -2.2894
    -2.0340  -1.7420  -1.4653  -1.4257  -1.3200  -1.1897  -1.0900  -0.9512
    -0.9362  -0.9280  -0.9078  -0.8796  -0.8514  -0.8182  -0.7832  -0.7516
    -0.7307  -0.7183  -0.6840  -0.4822  -0.2015   0.0054   0.0566   0.1477
     0.2529   0.3667

          k = 0.1000 0.5196 0.0000 ( 43824 PWs)   bands (ev):

    -8.1897  -8.0538  -8.0290  -7.9936  -7.9491  -7.9012  -7.8554  -7.8160
    -7.7911  -7.5061  -7.4506  -7.4246  -7.3888  -7.3446  -7.2975  -7.2527
    -7.2143  -7.1902  -5.8094  -5.6636  -5.6396  -5.6053  -5.5620  -5.5155
    -5.4710  -5.4329  -5.4089  -4.2109  -3.9111  -3.8889  -3.8568  -3.8158
    -3.7713  -3.7284  -3.6916  -3.6685  -3.1710  -2.3655  -2.2422  -2.0526
    -1.8199  -1.7737  -1.6662  -1.5504  -1.4471  -1.2853  -1.1494  -0.9877
    -0.8295  -0.6809  -0.5320  -0.4661  -0.4501  -0.4354  -0.4243  -0.3956
    -0.3657  -0.3366  -0.3092  -0.2840  -0.2681  -0.1659  -0.0367   0.0219
     0.1035   0.1695

          k = 0.1000 0.5774 0.0000 ( 43838 PWs)   bands (ev):

    -8.0413  -7.7701  -7.7675  -7.7524  -7.7433  -7.7235  -7.7084  -7.6853
    -7.6637  -7.6427  -7.6157  -7.5993  -7.5698  -7.5595  -7.5302  -7.5258
    -7.5053  -7.5043  -5.8243  -5.6783  -5.6543  -5.6200  -5.5767  -5.5302
    -5.4858  -5.4476  -5.4236  -4.2190  -3.9250  -3.9029  -3.8707  -3.8296
    -3.7851  -3.7421  -3.7052  -3.6821  -3.1561  -2.0935  -2.0837  -1.9898
    -1.9544  -1.8213  -1.7523  -1.5932  -1.4862  -1.3179  -1.1730  -1.0100
    -0.8334  -0.6922  -0.4993  -0.3959  -0.2261  -0.1736  -0.1173  -0.1126
    -0.1040  -0.0912  -0.0765  -0.0726  -0.0583  -0.0427  -0.0317  -0.0264
    -0.0149   0.1036

          k = 0.1500 0.2598 0.0000 ( 43925 PWs)   bands (ev):

    -8.9937  -8.9168  -8.8909  -8.8547  -8.8098  -8.7619  -8.7163  -8.6773
    -8.6528  -6.0586  -5.6224  -5.6200  -5.6054  -5.5970  -5.5774  -5.5635
    -5.5403  -5.5203  -5.4990  -5.4736  -5.4568  -5.4288  -5.4183  -5.3902
    -5.3857  -5.3661  -5.3650  -4.0144  -3.2066  -3.1793  -3.1750  -3.1672
    -3.1543  -3.1380  -3.1191  -3.1015  -3.0889  -3.0831  -3.0788  -2.8942
    -2.6735  -2.6449  -2.6233  -2.5954  -2.5637  -2.5348  -2.5119  -2.4960
    -2.4892  -2.4485  -2.2000  -1.8879  -1.5629  -1.2912  -0.9911  -0.3783
    -0.3765  -0.3609  -0.3548  -0.3331  -0.3228  -0.2978  -0.2825  -0.2609
    -0.2411  -0.2238

          k = 0.1500 0.3175 0.0000 ( 43918 PWs)   bands (ev):

    -8.8468  -8.7649  -8.7391  -8.7030  -8.6582  -8.6102  -8.5647  -8.5257
    -8.5011  -6.3323  -6.0637  -6.0408  -6.0074  -5.9646  -5.9182  -5.8731
    -5.8341  -5.8087  -5.7847  -5.7651  -5.7393  -5.7048  -5.6624  -5.6168
    -5.5733  -5.5359  -5.5125  -3.9902  -3.2032  -3.1868  -3.1629  -3.1322
    -3.1003  -3.0716  -3.0598  -3.0408  -3.0244  -3.0150  -2.9244  -2.7357
    -2.5032  -2.4027  -2.3829  -2.3556  -2.3221  -2.2900  -2.2658  -2.2410
    -2.2133  -2.1951  -2.0434  -1.7450  -1.4246  -1.1537  -0.9067  -0.4175
    -0.3056  -0.1449  -0.1267  -0.0434   0.0237   0.0579   0.0762   0.1043
     0.1273   0.1571

          k = 0.1500 0.3753 0.0000 ( 43900 PWs)   bands (ev):

    -8.6720  -8.5829  -8.5573  -8.5213  -8.4765  -8.4286  -8.3830  -8.3440
    -8.3194  -6.6563  -6.4794  -6.4554  -6.4211  -6.3774  -6.3303  -6.2850
    -6.2461  -6.2217  -5.9573  -5.8850  -5.8601  -5.8253  -5.7820  -5.7357
    -5.6915  -5.6537  -5.6300  -3.9753  -3.2864  -3.2672  -3.2388  -3.2019
    -3.1621  -3.1232  -3.0896  -3.0679  -3.0150  -2.8776  -2.7478  -2.5516
    -2.3022  -2.0429  -2.0076  -1.9864  -1.9570  -1.9199  -1.8802  -1.8424
    -1.8126  -1.7946  -1.7801  -1.5660  -1.2678  -1.0167  -0.8905  -0.8145
    -0.6887  -0.5053  -0.2854  -0.2379  -0.1367  -0.0286   0.0674   0.2194
     0.3269   0.4552

          k = 0.1500 0.4330 0.0000 ( 43865 PWs)   bands (ev):

    -8.4712  -8.3710  -8.3455  -8.3097  -8.2650  -8.2171  -8.1714  -8.1323
    -8.1077  -6.9915  -6.8669  -6.8423  -6.8074  -6.7634  -6.7161  -6.6709
    -6.6323  -6.6079  -6.0674  -5.9740  -5.9493  -5.9145  -5.8710  -5.8245
    -5.7801  -5.7421  -5.7183  -3.9700  -3.3601  -3.3397  -3.3097  -3.2708
    -3.2288  -3.1877  -3.1521  -3.1294  -2.9962  -2.6729  -2.5445  -2.3478
    -2.0941  -1.8070  -1.5550  -1.5443  -1.5262  -1.4993  -1.4633  -1.4237
    -1.3848  -1.3508  -1.3283  -1.3101  -1.2161  -1.1498  -1.0592  -0.9537
    -0.8287  -0.7371  -0.5885  -0.3595  -0.3153  -0.2163  -0.0988   0.0193
     0.1551   0.3020

          k = 0.1500 0.4907 0.0000 ( 43839 PWs)   bands (ev):

    -8.2501  -8.1292  -8.1041  -8.0686  -8.0239  -7.9761  -7.9303  -7.8911
    -7.8664  -7.3094  -7.2258  -7.2006  -7.1651  -7.1209  -7.0736  -7.0286
    -6.9901  -6.9659  -6.1351  -6.0333  -6.0086  -5.9738  -5.9303  -5.8837
    -5.8392  -5.8011  -5.7772  -3.9707  -3.4119  -3.3909  -3.3604  -3.3207
    -3.2776  -3.2357  -3.1995  -3.1767  -2.9713  -2.4385  -2.3135  -2.1207
    -1.8727  -1.6029  -1.5529  -1.4446  -1.3207  -1.2251  -1.0729  -1.0578
    -1.0525  -1.0309  -1.0015  -0.9733  -0.9427  -0.9097  -0.8793  -0.8590
    -0.8435  -0.7558  -0.6017  -0.5104  -0.4009  -0.3444  -0.2579  -0.1449
    -0.0095   0.1070

          k = 0.1500 0.5485 0.0000 ( 43834 PWs)   bands (ev):

    -8.0395  -7.8579  -7.8339  -7.7993  -7.7553  -7.7079  -7.6620  -7.6223
    -7.5965  -7.5704  -7.5534  -7.5266  -7.4911  -7.4479  -7.4014  -7.3571
    -7.3190  -7.2951  -6.1677  -6.0629  -6.0383  -6.0035  -5.9599  -5.9133
    -5.8687  -5.8306  -5.8067  -3.9726  -3.4384  -3.4172  -3.3863  -3.3463
    -3.3029  -3.2607  -3.2243  -3.2014  -2.9535  -2.1752  -2.0564  -1.8924
    -1.8669  -1.7669  -1.6499  -1.5599  -1.3961  -1.2776  -1.1056  -0.9574
    -0.7920  -0.6448  -0.6153  -0.6010  -0.5812  -0.5558  -0.5293  -0.5040
    -0.4866  -0.4819  -0.4682  -0.4590  -0.4247  -0.3555  -0.2851  -0.2409
    -0.1730  -0.0447

          k = 0.2000 0.3464 0.0000 ( 43889 PWs)   bands (ev):

    -8.6864  -8.5981  -8.5724  -8.5364  -8.4916  -8.4437  -8.3981  -8.3591
    -8.3345  -6.5307  -6.1996  -6.1971  -6.1823  -6.1736  -6.1540  -6.1396
    -6.1166  -6.0958  -6.0748  -6.0486  -6.0321  -6.0034  -5.9931  -5.9645
    -5.9601  -5.9402  -5.9392  -3.9251  -2.8971  -2.8816  -2.8773  -2.8694
    -2.8564  -2.8401  -2.8213  -2.8038  -2.7909  -2.7840  -2.7736  -2.5881
    -2.3676  -2.3449  -2.3237  -2.2964  -2.2653  -2.2367  -2.2141  -2.1984
    -2.1917  -2.1453  -1.9057  -1.6010  -1.2846  -1.0206  -0.8666  -0.5541
    -0.5428  -0.4536  -0.4149  -0.2909  -0.2202  -0.0719   0.0304   0.1898
     0.3157   0.4752

          k = 0.2000 0.4041 0.0000 ( 43892 PWs)   bands (ev):

    -8.4992  -8.4012  -8.3757  -8.3399  -8.2952  -8.2473  -8.2016  -8.1625
    -8.1380  -6.7919  -6.5987  -6.5751  -6.5411  -6.4978  -6.4511  -6.4059
    -6.3667  -6.3413  -6.3156  -6.2980  -6.2716  -6.2367  -6.1941  -6.1482
    -6.1045  -6.0670  -6.0434  -3.8774  -2.8614  -2.8454  -2.8219  -2.7916
    -2.7600  -2.7300  -2.7108  -2.6995  -2.6844  -2.6750  -2.5761  -2.3890
    -2.1568  -2.0659  -2.0466  -2.0198  -1.9868  -1.9535  -1.9263  -1.9055
    -1.8805  -1.8631  -1.7131  -1.4340  -1.1463  -0.9568  -0.9145  -0.8152
    -0.7504  -0.6603  -0.6213  -0.5325  -0.4218  -0.3206  -0.1787  -0.0434
     0.1029   0.2686

          k = 0.2000 0.4619 0.0000 ( 43839 PWs)   bands (ev):

    -8.2886  -8.1745  -8.1493  -8.1136  -8.0690  -8.0211  -7.9754  -7.9362
    -7.9116  -7.0928  -6.9716  -6.9470  -6.9121  -6.8681  -6.8207  -6.7755
    -6.7367  -6.7123  -6.4309  -6.3743  -6.3487  -6.3134  -6.2698  -6.2233
    -6.1791  -6.1412  -6.1175  -3.8455  -2.9016  -2.8829  -2.8552  -2.8191
    -2.7802  -2.7418  -2.7083  -2.6864  -2.6496  -2.4819  -2.3569  -2.1659
    -1.9216  -1.6616  -1.6394  -1.6195  -1.5919  -1.5565  -1.5185  -1.4814
    -1.4496  -1.4292  -1.4192  -1.3221  -1.2700  -1.1802  -1.0579  -0.9428
    -0.7981  -0.7347  -0.6895  -0.6095  -0.5555  -0.4906  -0.3710  -0.2426
    -0.0846   0.0486

          k = 0.2000 0.5196 0.0000 ( 43840 PWs)   bands (ev):

    -8.0678  -7.9180  -7.8934  -7.8582  -7.8138  -7.7659  -7.7200  -7.6806
    -7.6557  -7.3789  -7.3156  -7.2900  -7.2544  -7.2103  -7.1632  -7.1183
    -7.0798  -7.0556  -6.4900  -6.4192  -6.3938  -6.3585  -6.3148  -6.2681
    -6.2237  -6.1858  -6.1619  -3.8277  -2.9332  -2.9136  -2.8845  -2.8469
    -2.8059  -2.7655  -2.7301  -2.7072  -2.6310  -2.2333  -2.1119  -1.9253
    -1.6930  -1.6436  -1.5357  -1.4228  -1.3309  -1.1756  -1.1600  -1.1543
    -1.1369  -1.1088  -1.0824  -1.0552  -1.0258  -0.9981  -0.9799  -0.9628
    -0.8574  -0.7773  -0.7251  -0.6492  -0.5535  -0.5168  -0.3926  -0.3105
    -0.2718  -0.1148

          k = 0.2000 0.5774 0.0000 ( 43846 PWs)   bands (ev):

    -7.9277  -7.6346  -7.6320  -7.6169  -7.6080  -7.5881  -7.5732  -7.5500
    -7.5286  -7.5074  -7.4807  -7.4640  -7.4347  -7.4244  -7.3951  -7.3907
    -7.3703  -7.3692  -6.5086  -6.4341  -6.4088  -6.3735  -6.3297  -6.2830
    -6.2386  -6.2006  -6.1767  -3.8221  -2.9446  -2.9247  -2.8954  -2.8572
    -2.8157  -2.7748  -2.7392  -2.7161  -2.6240  -1.9610  -1.9518  -1.8575
    -1.8244  -1.6893  -1.6258  -1.4615  -1.3654  -1.1868  -1.0642  -0.8797
    -0.8393  -0.8343  -0.8256  -0.8124  -0.7970  -0.7944  -0.7794  -0.7637
    -0.7541  -0.7504  -0.7455  -0.6651  -0.5627  -0.5297  -0.4139  -0.2834
    -0.2673  -0.1813

          k = 0.2500 0.4330 0.0000 ( 43893 PWs)   bands (ev):

    -8.3018  -8.1896  -8.1643  -8.1287  -8.0840  -8.0361  -7.9904  -7.9513
    -7.9267  -6.9480  -6.6906  -6.6880  -6.6732  -6.6642  -6.6448  -6.6298
    -6.6070  -6.5856  -6.5649  -6.5382  -6.5220  -6.4928  -6.4828  -6.4538
    -6.4495  -6.4294  -6.4283  -3.8104  -2.5001  -2.4988  -2.4945  -2.4868
    -2.4738  -2.4576  -2.4389  -2.4217  -2.4089  -2.4021  -2.3793  -2.1962
    -1.9801  -1.9726  -1.9534  -1.9278  -1.8983  -1.8711  -1.8497  -1.8349
    -1.8288  -1.7668  -1.5573  -1.2876  -1.0517  -1.0360  -1.0080  -0.9340
    -0.8914  -0.7847  -0.7684  -0.6673  -0.5679  -0.5446  -0.4073  -0.2750
    -0.1092   0.0257

          k = 0.2500 0.4907 0.0000 ( 43814 PWs)   bands (ev):

    -8.0871  -7.9482  -7.9234  -7.8880  -7.8435  -7.7956  -7.7498  -7.7105
    -7.6858  -7.1706  -7.0465  -7.0223  -6.9878  -6.9441  -6.8972  -6.8520
    -6.8129  -6.7876  -6.7602  -6.7441  -6.7174  -6.6822  -6.6394  -6.5935
    -6.5497  -6.5122  -6.4886  -3.7681  -2.4374  -2.4218  -2.3987  -2.3691
    -2.3378  -2.3076  -2.2832  -2.2692  -2.2606  -2.2524  -2.1417  -1.9586
    -1.7294  -1.6743  -1.6567  -1.6323  -1.6016  -1.5692  -1.5379  -1.5122
    -1.4967  -1.4863  -1.4025  -1.3645  -1.2669  -1.1466  -1.0978  -1.0545
    -0.9741  -0.8800  -0.8381  -0.7353  -0.6111  -0.5760  -0.4482  -0.3421
    -0.3245  -0.1485

          k = 0.2500 0.5485 0.0000 ( 43847 PWs)   bands (ev):

    -7.8908  -7.6773  -7.6535  -7.6192  -7.5754  -7.5282  -7.4823  -7.4425
    -7.4166  -7.3920  -7.3737  -7.3473  -7.3120  -7.2688  -7.2223  -7.1779
    -7.1396  -7.1154  -6.8178  -6.7762  -6.7499  -6.7142  -6.6706  -6.6241
    -6.5799  -6.5421  -6.5183  -3.7476  -2.4397  -2.4221  -2.3957  -2.3613
    -2.3240  -2.2870  -2.2547  -2.2327  -2.2158  -1.9991  -1.8826  -1.7167
    -1.6951  -1.5933  -1.4778  -1.3992  -1.2800  -1.2675  -1.2489  -1.2254
    -1.2212  -1.2005  -1.1778  -1.1605  -1.1445  -1.1334  -1.1282  -1.1008
    -1.0098  -0.9317  -0.8752  -0.7799  -0.6321  -0.6140  -0.4919  -0.3444
    -0.3235  -0.3132

          k = 0.3000 0.5196 0.0000 ( 43811 PWs)   bands (ev):

    -7.8868  -7.6923  -7.6681  -7.6334  -7.5893  -7.5416  -7.4955  -7.4557
    -7.4306  -7.2381  -7.0941  -7.0914  -7.0766  -7.0670  -7.0480  -7.0322
    -7.0102  -6.9879  -6.9679  -6.9403  -6.9247  -6.8950  -6.8853  -6.8559
    -6.8518  -6.8315  -6.8305  -3.7257  -2.0310  -2.0270  -2.0194  -2.0147
    -2.0067  -1.9910  -1.9726  -1.9554  -1.9424  -1.9355  -1.8994  -1.7222
    -1.5964  -1.5813  -1.5616  -1.5399  -1.5221  -1.5106  -1.5058  -1.5003
    -1.4992  -1.4505  -1.4318  -1.4126  -1.3290  -1.3061  -1.2118  -1.1621
    -1.0911  -0.9365  -0.9363  -0.8112  -0.6644  -0.6336  -0.5165  -0.3862
    -0.3605  -0.3322

          k = 0.3000 0.5774 0.0000 ( 43826 PWs)   bands (ev):

    -7.7769  -7.4090  -7.4066  -7.3915  -7.3832  -7.3628  -7.3490  -7.3247
    -7.3049  -7.2823  -7.2573  -7.2389  -7.2113  -7.1994  -7.1715  -7.1658
    -7.1461  -7.1445  -7.1125  -7.0991  -7.0726  -7.0375  -6.9954  -6.9501
    -6.9069  -6.8696  -6.8461  -3.7121  -1.9531  -1.9390  -1.9179  -1.8906
    -1.8616  -1.8332  -1.8096  -1.7930  -1.7836  -1.7404  -1.7325  -1.6371
    -1.6116  -1.4765  -1.4704  -1.4693  -1.4604  -1.4492  -1.4465  -1.4311
    -1.4215  -1.4141  -1.3990  -1.3883  -1.3829  -1.3324  -1.2424  -1.2020
    -1.1300  -0.9688  -0.9564  -0.8562  -0.6737  -0.6629  -0.6156  -0.6055
    -0.5956  -0.5842

     the Fermi energy is    -1.0202 ev

!    total energy              =    -447.86607149 Ry
     Harris-Foulkes estimate   =    -447.86611621 Ry
     estimated scf accuracy    <       0.00002615 Ry

     The total energy is the sum of the following terms:

     one-electron contribution =   -9731.00433683 Ry
     hartree contribution      =    4883.21611225 Ry
     xc contribution           =    -355.92279658 Ry
     ewald contribution        =    4755.84478960 Ry
     smearing contrib. (-TS)   =       0.00016007 Ry

     convergence has been achieved in  71 iterations

     negative rho (up, down):  8.960E-05 0.000E+00

     Forces acting on atoms (cartesian axes, Ry/au):

     atom    1 type  1   force =    -0.00008606    0.00004968    0.00026233
     atom    2 type  1   force =     0.00000000   -0.00009937    0.00026233
     atom    3 type  1   force =     0.00008606    0.00004968    0.00026233
     atom    4 type  1   force =     0.00000000    0.00000000    0.00023171
     atom    5 type  1   force =     0.00000000   -0.00003962    0.00413400
     atom    6 type  1   force =    -0.00003431    0.00001981    0.00413400
     atom    7 type  1   force =     0.00000000    0.00000000    0.00410819
     atom    8 type  1   force =     0.00003431    0.00001981    0.00413400
     atom    9 type  1   force =     0.00000000    0.00000000    0.00010154
     atom   10 type  1   force =    -0.00007570   -0.00004370    0.00003113
     atom   11 type  1   force =     0.00000000    0.00008741    0.00003113
     atom   12 type  1   force =     0.00007570   -0.00004370    0.00003113
     atom   13 type  1   force =     0.00005370   -0.00003100    0.00000781
     atom   14 type  1   force =     0.00000000    0.00006201    0.00000781
     atom   15 type  1   force =    -0.00005370   -0.00003100    0.00000781
     atom   16 type  1   force =     0.00000000   -0.00000000   -0.00006076
     atom   17 type  1   force =     0.00000000   -0.00000742    0.00005656
     atom   18 type  1   force =    -0.00000643    0.00000371    0.00005656
     atom   19 type  1   force =     0.00000000    0.00000000    0.00003426
     atom   20 type  1   force =     0.00000643    0.00000371    0.00005656
     atom   21 type  1   force =     0.00000000    0.00000000   -0.00017488
     atom   22 type  1   force =    -0.00002150   -0.00001241    0.00001736
     atom   23 type  1   force =     0.00000000    0.00002483    0.00001736
     atom   24 type  1   force =     0.00002150   -0.00001241    0.00001736
     atom   25 type  1   force =    -0.00025598    0.00014779   -0.00013790
     atom   26 type  1   force =     0.00000000   -0.00029558   -0.00013790
     atom   27 type  1   force =     0.00025598    0.00014779   -0.00013790
     atom   28 type  1   force =     0.00000000    0.00000000    0.00217843
     atom   29 type  1   force =     0.00000000   -0.00034707    0.00011158
     atom   30 type  1   force =    -0.00030057    0.00017354    0.00011158
     atom   31 type  1   force =     0.00000000    0.00000000   -0.00022504
     atom   32 type  1   force =     0.00030057    0.00017354    0.00011158
     atom   33 type  1   force =     0.00000000   -0.00000000   -0.06637128
     atom   34 type  1   force =    -0.00005122   -0.00002957   -0.00700426
     atom   35 type  1   force =    -0.00000000    0.00005915   -0.00700426
     atom   36 type  1   force =     0.00005122   -0.00002957   -0.00700426
     atom   37 type  2   force =     0.00000000    0.00000000    0.06774204

     Total force =     0.095997     Total SCF correction =     0.003942


     Computing stress (Cartesian axis) and pressure


     negative rho (up, down):  8.960E-05 0.000E+00
          total   stress  (Ry/bohr**3)                   (kbar)     P=  -25.03
  -0.00021778   0.00000000   0.00000000        -32.04      0.00      0.00
   0.00000000  -0.00021778  -0.00000000          0.00    -32.04     -0.00
   0.00000000  -0.00000000  -0.00007481          0.00     -0.00    -11.01


     BFGS Geometry Optimization

     number of scf cycles    =   1
     number of bfgs steps    =   0

     energy   new            =    -447.8660714935 Ry

     new trust radius        =       0.0677420429 bohr
     new conv_thr            =       0.0000360000 Ry


ATOMIC_POSITIONS (crystal)
Al       0.333328156   0.166671829   0.055557158
Al       0.333328156   0.666655836   0.055557158
Al       0.833344164   0.166671829   0.055557158
Al       0.833333492   0.666666508   0.055556964
Al      -0.000002127  -0.000004255   0.000026161
Al      -0.000002127   0.500002127   0.000026161
Al       0.500000000   0.000000000   0.000025998
Al       0.500004255   0.500002127   0.000026161
Al       0.166666493   0.333333492   0.111111807
Al       0.166657106   0.833328799   0.111111361
Al       0.666671201   0.333342879   0.111111361
Al       0.666671201   0.833328799   0.111111361
Al       0.333336822   0.166663163   0.222222214
Al       0.333336822   0.666673167   0.222222214
Al       0.833326833   0.166663163   0.222222214
Al       0.833333492   0.666666508   0.222221780
Al      -0.000000399  -0.000000797   0.166667025
Al      -0.000000399   0.500000399   0.166667025
Al       0.500000000   0.000000000   0.166666883
Al       0.500000797   0.500000399   0.166667025
Al       0.166666493   0.333333492   0.277776724
Al       0.166663827   0.833332159   0.277777941
Al       0.666667841   0.333336158   0.277777941
Al       0.666667841   0.833332159   0.277777941
Al       0.333317620   0.166682365   0.388887958
Al       0.333317620   0.666634764   0.388887958
Al       0.833365236   0.166682365   0.388887958
Al       0.833333492   0.666666508   0.388902617
Al      -0.000018637  -0.000037274   0.333334039
Al      -0.000018637   0.500018637   0.333334039
Al       0.500000000   0.000000000   0.333331909
Al       0.500037274   0.500018637   0.333334039
Al       0.166666493   0.333333492   0.444024483
Al       0.166660141   0.833330316   0.444400173
Al       0.666669684   0.333339844   0.444400173
Al       0.666669684   0.833330316   0.444400173
H        0.166666493   0.333333492   0.462873186



     Writing output data file Al_H1_et1_3_3.save/
     NEW-OLD atomic charge density approx. for the potential

     negative rho (up, down):  1.845E-04 0.000E+00

     total cpu time spent up to now is    78028.5 secs

     Self-consistent Calculation

     iteration #  1     ecut=    30.00 Ry     beta= 0.30
     Davidson diagonalization with overlap
     c_bands:  1 eigenvalues not converged
     ethr =  1.00E-06,  avg # of iterations = 10.1

     negative rho (up, down):  1.689E-04 0.000E+00

     total cpu time spent up to now is    80307.7 secs

     total energy              =    -447.87288944 Ry
     Harris-Foulkes estimate   =    -447.87475716 Ry
     estimated scf accuracy    <       0.83958024 Ry

     iteration #  2     ecut=    30.00 Ry     beta= 0.30
     Davidson diagonalization with overlap
     ethr =  7.70E-04,  avg # of iterations =  1.0

     negative rho (up, down):  5.645E-04 0.000E+00

     total cpu time spent up to now is    81400.1 secs

     total energy              =    -447.87054092 Ry
     Harris-Foulkes estimate   =    -447.87317439 Ry
     estimated scf accuracy    <       0.38312857 Ry

     iteration #  3     ecut=    30.00 Ry     beta= 0.30
     Davidson diagonalization with overlap
     ethr =  3.51E-04,  avg # of iterations =  1.0

     negative rho (up, down):  9.184E-04 0.000E+00

     total cpu time spent up to now is    82565.3 secs

     total energy              =    -447.87173808 Ry
     Harris-Foulkes estimate   =    -447.87176472 Ry
     estimated scf accuracy    <       0.00061331 Ry

     iteration #  4     ecut=    30.00 Ry     beta= 0.30
