
     Program PWSCF v.6.4.1 starts on 30May2020 at 21:56:44 

     This program is part of the open-source Quantum ESPRESSO suite
     for quantum simulation of materials; please cite
         "P. Giannozzi et al., J. Phys.:Condens. Matter 21 395502 (2009);
         "P. Giannozzi et al., J. Phys.:Condens. Matter 29 465901 (2017);
          URL http://www.quantum-espresso.org", 
     in publications or presentations arising from this work. More details at
     http://www.quantum-espresso.org/quote

     Parallel version (MPI & OpenMP), running on       1 processor cores
     Number of MPI processes:                 1
     Threads/MPI process:                     1

     MPI processes distributed on     1 nodes
     Reading input from Al_100_surf_13.pw.in

     Current dimensions of program PWSCF are:
     Max number of different atomic species (ntypx) = 10
     Max number of k-points (npk) =  40000
     Max angular momentum in pseudopotentials (lmaxx) =  3

     Subspace diagonalization in iterative solution of the eigenvalue problem:
     a serial algorithm will be used

     Found symmetry operation: I + ( -0.5000 -0.5000  0.0000)
     This is a supercell, fractional translations are disabled
 
     G-vector sticks info
     --------------------
     sticks:   dense  smooth     PW     G-vecs:    dense   smooth      PW
     Sum         681     681    421                95431    95431   45117
 


     bravais-lattice index     =            6
     lattice parameter (alat)  =       7.6050  a.u.
     unit-cell volume          =    3078.9008 (a.u.)^3
     number of atoms/cell      =           12
     number of atomic types    =            1
     number of electrons       =        36.00
     number of Kohn-Sham states=           22
     kinetic-energy cutoff     =      80.0000  Ry
     charge density cutoff     =     150.0000  Ry
     convergence threshold     =      1.0E-06
     mixing beta               =       0.3000
     number of iterations used =            8  local-TF  mixing
     Exchange-correlation      =  SLA  PW   PBE  PBE ( 1  4  3  4 0 0)
     nstep                     =           50


     celldm(1)=   7.605000  celldm(2)=   0.000000  celldm(3)=   7.000000
     celldm(4)=   0.000000  celldm(5)=   0.000000  celldm(6)=   0.000000

     crystal axes: (cart. coord. in units of alat)
               a(1) = (   1.000000   0.000000   0.000000 )  
               a(2) = (   0.000000   1.000000   0.000000 )  
               a(3) = (   0.000000   0.000000   7.000000 )  

     reciprocal axes: (cart. coord. in units 2 pi/alat)
               b(1) = (  1.000000  0.000000  0.000000 )  
               b(2) = (  0.000000  1.000000  0.000000 )  
               b(3) = (  0.000000  0.000000  0.142857 )  


     PseudoPot. # 1 for Al read from file:
     ./Al.pbe-n-van.UPF
     MD5 check sum: b11ded24487aef5bc42d5c7a2e22a7b6
     Pseudo is Ultrasoft + core correction, Zval =  3.0
     Generated by new atomic code, or converted to UPF format
     Using radial grid of  893 points,  2 beta functions with: 
                l(1) =   0
                l(2) =   1
     Q(r) pseudized with  8 coefficients,  rinner =    0.900   0.900   0.900


     atomic species   valence    mass     pseudopotential
        Al             3.00    26.98000     Al( 1.00)

      8 Sym. Ops. (no inversion) found



   Cartesian axes

     site n.     atom                  positions (alat units)
         1           Al  tau(   1) = (   0.0000000   0.0000000   0.0000000  )
         2           Al  tau(   2) = (   0.5000000   0.5000000   0.0000000  )
         3           Al  tau(   3) = (   0.5000000   0.0000000   0.5000000  )
         4           Al  tau(   4) = (   0.0000000   0.5000000   0.5000000  )
         5           Al  tau(   5) = (   0.0000000   0.0000000   1.0000000  )
         6           Al  tau(   6) = (   0.5000000   0.5000000   1.0000000  )
         7           Al  tau(   7) = (   0.5000000   0.0000000   1.5000000  )
         8           Al  tau(   8) = (   0.0000000   0.5000000   1.5000000  )
         9           Al  tau(   9) = (   0.0000000   0.0000000   2.0000000  )
        10           Al  tau(  10) = (   0.5000000   0.5000000   2.0000000  )
        11           Al  tau(  11) = (   0.5000000   0.0000000   2.5000000  )
        12           Al  tau(  12) = (   0.0000000   0.5000000   2.5000000  )

     number of k points=    45  Marzari-Vanderbilt smearing, width (Ry)=  0.0250
                       cart. coord. in units 2pi/alat
        k(    1) = (   0.0000000   0.0000000   0.0000000), wk =   0.0078125
        k(    2) = (   0.0000000   0.0625000   0.0000000), wk =   0.0312500
        k(    3) = (   0.0000000   0.1250000   0.0000000), wk =   0.0312500
        k(    4) = (   0.0000000   0.1875000   0.0000000), wk =   0.0312500
        k(    5) = (   0.0000000   0.2500000   0.0000000), wk =   0.0312500
        k(    6) = (   0.0000000   0.3125000   0.0000000), wk =   0.0312500
        k(    7) = (   0.0000000   0.3750000   0.0000000), wk =   0.0312500
        k(    8) = (   0.0000000   0.4375000   0.0000000), wk =   0.0312500
        k(    9) = (   0.0000000  -0.5000000   0.0000000), wk =   0.0156250
        k(   10) = (   0.0625000   0.0625000   0.0000000), wk =   0.0312500
        k(   11) = (   0.0625000   0.1250000   0.0000000), wk =   0.0625000
        k(   12) = (   0.0625000   0.1875000   0.0000000), wk =   0.0625000
        k(   13) = (   0.0625000   0.2500000   0.0000000), wk =   0.0625000
        k(   14) = (   0.0625000   0.3125000   0.0000000), wk =   0.0625000
        k(   15) = (   0.0625000   0.3750000   0.0000000), wk =   0.0625000
        k(   16) = (   0.0625000   0.4375000   0.0000000), wk =   0.0625000
        k(   17) = (   0.0625000  -0.5000000   0.0000000), wk =   0.0312500
        k(   18) = (   0.1250000   0.1250000   0.0000000), wk =   0.0312500
        k(   19) = (   0.1250000   0.1875000   0.0000000), wk =   0.0625000
        k(   20) = (   0.1250000   0.2500000   0.0000000), wk =   0.0625000
        k(   21) = (   0.1250000   0.3125000   0.0000000), wk =   0.0625000
        k(   22) = (   0.1250000   0.3750000   0.0000000), wk =   0.0625000
        k(   23) = (   0.1250000   0.4375000   0.0000000), wk =   0.0625000
        k(   24) = (   0.1250000  -0.5000000   0.0000000), wk =   0.0312500
        k(   25) = (   0.1875000   0.1875000   0.0000000), wk =   0.0312500
        k(   26) = (   0.1875000   0.2500000   0.0000000), wk =   0.0625000
        k(   27) = (   0.1875000   0.3125000   0.0000000), wk =   0.0625000
        k(   28) = (   0.1875000   0.3750000   0.0000000), wk =   0.0625000
        k(   29) = (   0.1875000   0.4375000   0.0000000), wk =   0.0625000
        k(   30) = (   0.1875000  -0.5000000   0.0000000), wk =   0.0312500
        k(   31) = (   0.2500000   0.2500000   0.0000000), wk =   0.0312500
        k(   32) = (   0.2500000   0.3125000   0.0000000), wk =   0.0625000
        k(   33) = (   0.2500000   0.3750000   0.0000000), wk =   0.0625000
        k(   34) = (   0.2500000   0.4375000   0.0000000), wk =   0.0625000
        k(   35) = (   0.2500000  -0.5000000   0.0000000), wk =   0.0312500
        k(   36) = (   0.3125000   0.3125000   0.0000000), wk =   0.0312500
        k(   37) = (   0.3125000   0.3750000   0.0000000), wk =   0.0625000
        k(   38) = (   0.3125000   0.4375000   0.0000000), wk =   0.0625000
        k(   39) = (   0.3125000  -0.5000000   0.0000000), wk =   0.0312500
        k(   40) = (   0.3750000   0.3750000   0.0000000), wk =   0.0312500
        k(   41) = (   0.3750000   0.4375000   0.0000000), wk =   0.0625000
        k(   42) = (   0.3750000  -0.5000000   0.0000000), wk =   0.0312500
        k(   43) = (   0.4375000   0.4375000   0.0000000), wk =   0.0312500
        k(   44) = (   0.4375000  -0.5000000   0.0000000), wk =   0.0312500
        k(   45) = (  -0.5000000  -0.5000000   0.0000000), wk =   0.0078125

     Dense  grid:    95431 G-vectors     FFT dimensions: (  30,  30, 216)

     Estimated max dynamical RAM per process >     805.10 MB

     Initial potential from superposition of free atoms

     starting charge   35.97042, renormalised to   36.00000

     negative rho (up, down):  4.485E-05 0.000E+00
     Starting wfcs are   48 randomized atomic wfcs

     total cpu time spent up to now is       22.4 secs

     Self-consistent Calculation

     iteration #  1     ecut=    80.00 Ry     beta= 0.30
     Davidson diagonalization with overlap
     ethr =  1.00E-02,  avg # of iterations =  2.7

     total cpu time spent up to now is       60.7 secs

     total energy              =    -149.52549907 Ry
     Harris-Foulkes estimate   =    -149.56542394 Ry
     estimated scf accuracy    <       0.94343793 Ry

     iteration #  2     ecut=    80.00 Ry     beta= 0.30
     Davidson diagonalization with overlap
     ethr =  2.62E-03,  avg # of iterations =  1.0

     negative rho (up, down):  2.001E-04 0.000E+00

     total cpu time spent up to now is       83.9 secs

     total energy              =    -149.36980971 Ry
     Harris-Foulkes estimate   =    -149.53503632 Ry
     estimated scf accuracy    <       0.73182410 Ry

     iteration #  3     ecut=    80.00 Ry     beta= 0.30
     Davidson diagonalization with overlap
     ethr =  2.03E-03,  avg # of iterations =  2.2

     total cpu time spent up to now is      111.4 secs

     total energy              =    -149.43581105 Ry
     Harris-Foulkes estimate   =    -149.50163212 Ry
     estimated scf accuracy    <       0.40750904 Ry

     iteration #  4     ecut=    80.00 Ry     beta= 0.30
     Davidson diagonalization with overlap
     ethr =  1.13E-03,  avg # of iterations =  2.0

     total cpu time spent up to now is      137.5 secs

     total energy              =    -149.46459653 Ry
     Harris-Foulkes estimate   =    -149.46463601 Ry
     estimated scf accuracy    <       0.02010411 Ry

     iteration #  5     ecut=    80.00 Ry     beta= 0.30
     Davidson diagonalization with overlap
     ethr =  5.58E-05,  avg # of iterations =  3.4

     total cpu time spent up to now is      167.8 secs

     total energy              =    -149.45934802 Ry
     Harris-Foulkes estimate   =    -149.46653805 Ry
     estimated scf accuracy    <       0.01925585 Ry

     iteration #  6     ecut=    80.00 Ry     beta= 0.30
     Davidson diagonalization with overlap
     ethr =  5.35E-05,  avg # of iterations =  2.7

     total cpu time spent up to now is      195.5 secs

     total energy              =    -149.46185134 Ry
     Harris-Foulkes estimate   =    -149.46179717 Ry
     estimated scf accuracy    <       0.03741398 Ry

     iteration #  7     ecut=    80.00 Ry     beta= 0.30
     Davidson diagonalization with overlap
     ethr =  5.35E-05,  avg # of iterations =  1.0

     negative rho (up, down):  6.542E-03 0.000E+00

     total cpu time spent up to now is      219.0 secs

     total energy              =    -149.45745980 Ry
     Harris-Foulkes estimate   =    -149.46201051 Ry
     estimated scf accuracy    <       0.02876303 Ry

     iteration #  8     ecut=    80.00 Ry     beta= 0.30
     Davidson diagonalization with overlap
     ethr =  5.35E-05,  avg # of iterations =  2.3

     negative rho (up, down):  4.682E-03 0.000E+00

     total cpu time spent up to now is      246.6 secs

     total energy              =    -149.45982010 Ry
     Harris-Foulkes estimate   =    -149.46002047 Ry
     estimated scf accuracy    <       0.00376837 Ry

     iteration #  9     ecut=    80.00 Ry     beta= 0.30
     Davidson diagonalization with overlap
     ethr =  1.05E-05,  avg # of iterations =  1.4

     negative rho (up, down):  1.886E-02 0.000E+00

     total cpu time spent up to now is      270.6 secs

     total energy              =    -149.45887722 Ry
     Harris-Foulkes estimate   =    -149.45992538 Ry
     estimated scf accuracy    <       0.00276177 Ry

     iteration # 10     ecut=    80.00 Ry     beta= 0.30
     Davidson diagonalization with overlap
     ethr =  7.67E-06,  avg # of iterations =  3.1

     negative rho (up, down):  1.749E-02 0.000E+00

     total cpu time spent up to now is      305.6 secs

     total energy              =    -149.45992570 Ry
     Harris-Foulkes estimate   =    -149.46028674 Ry
     estimated scf accuracy    <       0.01685175 Ry

     iteration # 11     ecut=    80.00 Ry     beta= 0.30
     Davidson diagonalization with overlap
     ethr =  7.67E-06,  avg # of iterations =  1.0

     negative rho (up, down):  3.648E-03 0.000E+00

     total cpu time spent up to now is      329.0 secs

     total energy              =    -149.45869613 Ry
     Harris-Foulkes estimate   =    -149.45995330 Ry
     estimated scf accuracy    <       0.01283500 Ry

     iteration # 12     ecut=    80.00 Ry     beta= 0.30
     Davidson diagonalization with overlap
     ethr =  7.67E-06,  avg # of iterations =  2.0

     negative rho (up, down):  2.760E-03 0.000E+00

     total cpu time spent up to now is      356.7 secs

     total energy              =    -149.45922880 Ry
     Harris-Foulkes estimate   =    -149.45920684 Ry
     estimated scf accuracy    <       0.00084247 Ry

     iteration # 13     ecut=    80.00 Ry     beta= 0.30
     Davidson diagonalization with overlap
     ethr =  2.34E-06,  avg # of iterations =  1.0

     negative rho (up, down):  9.970E-04 0.000E+00

     total cpu time spent up to now is      380.5 secs

     total energy              =    -149.45931524 Ry
     Harris-Foulkes estimate   =    -149.45923844 Ry
     estimated scf accuracy    <       0.00104974 Ry

     iteration # 14     ecut=    80.00 Ry     beta= 0.30
     Davidson diagonalization with overlap
     ethr =  2.34E-06,  avg # of iterations =  2.0

     negative rho (up, down):  9.609E-04 0.000E+00

     total cpu time spent up to now is      407.6 secs

     total energy              =    -149.45936361 Ry
     Harris-Foulkes estimate   =    -149.45938182 Ry
     estimated scf accuracy    <       0.00330300 Ry

     iteration # 15     ecut=    80.00 Ry     beta= 0.30
     Davidson diagonalization with overlap
     ethr =  2.34E-06,  avg # of iterations =  1.0

     negative rho (up, down):  9.400E-04 0.000E+00

     total cpu time spent up to now is      431.8 secs

     total energy              =    -149.45920717 Ry
     Harris-Foulkes estimate   =    -149.45936713 Ry
     estimated scf accuracy    <       0.00311875 Ry

     iteration # 16     ecut=    80.00 Ry     beta= 0.30
     Davidson diagonalization with overlap
     ethr =  2.34E-06,  avg # of iterations =  1.0

     negative rho (up, down):  9.245E-04 0.000E+00

     total cpu time spent up to now is      455.8 secs

     total energy              =    -149.45909402 Ry
     Harris-Foulkes estimate   =    -149.45923994 Ry
     estimated scf accuracy    <       0.00115157 Ry

     iteration # 17     ecut=    80.00 Ry     beta= 0.30
     Davidson diagonalization with overlap
     ethr =  2.34E-06,  avg # of iterations =  2.2

     negative rho (up, down):  6.488E-04 0.000E+00

     total cpu time spent up to now is      484.1 secs

     total energy              =    -149.45916788 Ry
     Harris-Foulkes estimate   =    -149.45917331 Ry
     estimated scf accuracy    <       0.00001048 Ry

     iteration # 18     ecut=    80.00 Ry     beta= 0.30
     Davidson diagonalization with overlap
     ethr =  2.91E-08,  avg # of iterations =  3.2

     negative rho (up, down):  1.365E-04 0.000E+00

     total cpu time spent up to now is      516.3 secs

     total energy              =    -149.45916770 Ry
     Harris-Foulkes estimate   =    -149.45916991 Ry
     estimated scf accuracy    <       0.00000354 Ry

     iteration # 19     ecut=    80.00 Ry     beta= 0.30
     Davidson diagonalization with overlap
     ethr =  9.84E-09,  avg # of iterations =  3.0

     negative rho (up, down):  7.702E-05 0.000E+00

     total cpu time spent up to now is      548.6 secs

     total energy              =    -149.45916728 Ry
     Harris-Foulkes estimate   =    -149.45916896 Ry
     estimated scf accuracy    <       0.00000982 Ry

     iteration # 20     ecut=    80.00 Ry     beta= 0.30
     Davidson diagonalization with overlap
     ethr =  9.84E-09,  avg # of iterations =  2.1

     negative rho (up, down):  6.039E-06 0.000E+00

     total cpu time spent up to now is      575.6 secs

     End of self-consistent calculation

          k = 0.0000 0.0000 0.0000 ( 37267 PWs)   bands (ev):

    -9.9653  -9.2940  -8.1935  -6.7119  -4.8859  -2.6952  -1.6972  -1.6972
    -1.1631  -1.0800  -1.0800  -0.3292  -0.3292  -0.0621  -0.0621   0.3058
     0.3059   1.3223   1.3223   1.4513   1.4513   1.6804

          k = 0.0000 0.0625 0.0000 ( 37205 PWs)   bands (ev):

    -9.9296  -9.2584  -8.1581  -6.6768  -4.8512  -2.6607  -2.2660  -1.6644
    -1.6370  -1.1300  -1.0472  -0.6082  -0.2937  -0.0293   0.2761   0.3958
     0.7761   0.9123   1.3550   1.5442   1.7130   2.0072

          k = 0.0000 0.1250 0.0000 ( 37193 PWs)   bands (ev):

    -9.8224  -9.1517  -8.0521  -6.5717  -4.7471  -3.1678  -2.5573  -2.5292
    -1.5660  -1.4831  -1.0306  -0.9488  -0.2336  -0.0175   0.0691   0.4675
     1.3872   1.4533   1.5130   1.7048   1.8105   2.0991

          k = 0.0000 0.1875 0.0000 ( 37198 PWs)   bands (ev):

    -9.6439  -8.9739  -7.8755  -6.3965  -4.5737  -4.0650  -3.4202  -2.3853
    -2.3630  -1.4019  -0.9445  -0.8650  -0.7847  -0.0041   0.2331   0.5555
     0.9411   1.6170   1.7211   1.9708   2.5691   2.9481

          k = 0.0000 0.2500 0.0000 ( 37192 PWs)   bands (ev):

    -9.3944  -8.7254  -7.6286  -6.1518  -4.9148  -4.3314  -4.2652  -3.2000
    -2.1451  -1.7669  -1.1722  -0.6334  -0.5550  -0.0210   0.2223   0.4627
     0.9434   1.8463   1.9097   2.1881   2.2442   3.0325

          k = 0.0000 0.3125 0.0000 ( 37174 PWs)   bands (ev):

    -9.0742  -8.4065  -7.3117  -5.8377  -5.7062  -5.0528  -4.0206  -3.9811
    -2.5385  -1.8374  -0.8768  -0.7666  -0.3360  -0.2596   0.4948   0.7579
     1.2322   1.4422   2.1410   2.2768   2.3089   2.4425

          k = 0.0000 0.3750 0.0000 ( 37172 PWs)   bands (ev):

    -8.6839  -8.0177  -6.9255  -6.4349  -5.7781  -5.4548  -4.7011  -3.6418
    -3.2510  -1.4659  -1.4633  -0.5156   0.0267   0.1015   0.5502   1.0793
     1.1187   1.5868   1.5942   2.1178   2.2030   2.5012

          k = 0.0000 0.4375 0.0000 ( 37222 PWs)   bands (ev):

    -8.2239  -7.5597  -7.0984  -6.4704  -6.4388  -5.3571  -5.0037  -3.9006
    -3.1957  -2.1061  -1.0244  -0.0887   0.0275   0.4542   0.5282   0.9625
     1.4035   1.4938   1.5452   1.5790   2.0407   2.3505

          k = 0.0000-0.5000 0.0000 ( 37186 PWs)   bands (ev):

    -7.6951  -7.6951  -7.0330  -7.0330  -5.9473  -5.9473  -4.4853  -4.4853
    -2.6834  -2.6834  -0.5242  -0.5242   0.4040   0.4040   0.9449   0.9449
     1.0208   1.0208   1.8659   1.8659   2.0372   2.0372

          k = 0.0625 0.0625 0.0000 ( 37181 PWs)   bands (ev):

    -9.8939  -9.2228  -8.1228  -6.6418  -4.8165  -2.6262  -2.2328  -2.2328
    -1.6042  -1.6042  -1.0968  -0.5676  -0.5676   0.3297   0.3297   0.8348
     0.8348   0.9779   0.9779   1.7454   2.0815   2.0816

          k = 0.0625 0.1250 0.0000 ( 37200 PWs)   bands (ev):

    -9.7867  -9.1161  -8.0167  -6.5366  -4.7124  -3.1340  -2.5229  -2.4964
    -2.1318  -1.5387  -1.4090  -0.9975  -0.4712  -0.0345   0.4546   0.9233
     1.0626   1.4349   1.7590   1.8413   1.9381   2.2792

          k = 0.0625 0.1875 0.0000 ( 37177 PWs)   bands (ev):

    -9.6083  -8.9384  -7.8402  -6.3616  -4.5391  -4.0308  -3.3863  -2.3510
    -2.3309  -1.9662  -1.3310  -0.9072  -0.8320  -0.2913   0.6119   0.7994
     1.1138   1.3275   1.9956   2.2948   2.7345   3.1108

          k = 0.0625 0.2500 0.0000 ( 37203 PWs)   bands (ev):

    -9.3588  -8.6900  -7.5933  -6.1168  -4.8803  -4.2969  -4.2310  -3.1663
    -2.1110  -1.7763  -1.6865  -1.1016  -0.6005  -0.0627   0.0320   0.8329
     1.3353   1.5287   2.1599   2.1644   2.5933   2.6013

          k = 0.0625 0.3125 0.0000 ( 37175 PWs)   bands (ev):

    -9.0387  -8.3711  -7.2766  -5.8028  -5.6715  -5.0183  -3.9862  -3.9470
    -2.5055  -1.8036  -1.4297  -0.8441  -0.6814  -0.3034   0.2334   1.0499
     1.5447   1.6262   1.7275   1.8235   2.3724   2.5555

          k = 0.0625 0.3750 0.0000 ( 37193 PWs)   bands (ev):

    -8.6484  -7.9825  -6.8904  -6.4000  -5.7434  -5.4200  -4.6667  -3.6075
    -3.2170  -1.4346  -1.4302  -1.0664  -0.4266   0.0590   0.5675   0.7218
     1.0573   1.5866   1.6854   1.9337   2.1552   2.2569

          k = 0.0625 0.4375 0.0000 ( 37206 PWs)   bands (ev):

    -8.1886  -7.5245  -7.0633  -6.4355  -6.4039  -5.3225  -4.9691  -3.8663
    -3.1616  -2.0728  -0.9936  -0.6434   0.0019   0.0914   0.4379   0.4850
     1.0356   1.0612   1.5223   1.9805   2.0851   2.4430

          k = 0.0625-0.5000 0.0000 ( 37210 PWs)   bands (ev):

    -7.6599  -7.6599  -6.9980  -6.9980  -5.9125  -5.9125  -4.4508  -4.4508
    -2.6495  -2.6495  -0.5118  -0.5118  -0.1024  -0.1024   0.4967   0.4967
     0.9779   0.9779   1.5279   1.5279   2.4383   2.4383

          k = 0.1250 0.1250 0.0000 ( 37179 PWs)   bands (ev):

    -9.6796  -9.0095  -7.9108  -6.4316  -4.6084  -3.0328  -3.0328  -2.4198
    -2.3961  -2.3961  -1.3400  -1.3400  -0.8982   0.0716   0.0716   1.5204
     1.5205   1.7775   1.7775   1.9293   2.2090   2.2091

          k = 0.1250 0.1875 0.0000 ( 37156 PWs)   bands (ev):

    -9.5013  -8.8319  -7.7343  -6.2566  -4.4353  -3.9284  -3.2855  -2.8625
    -2.2980  -2.2483  -2.1491  -1.1819  -0.7866  -0.7330   0.2331   0.9604
     1.6771   1.9637   2.0263   2.3509   2.5761   2.7180

          k = 0.1250 0.2500 0.0000 ( 37165 PWs)   bands (ev):

    -9.2520  -8.5836  -7.4877  -6.0121  -4.7770  -4.1933  -4.1284  -3.0666
    -2.6280  -2.0089  -1.9820  -1.6301  -0.9295  -0.5019   0.1210   0.4971
     1.6036   1.8333   2.1235   2.2676   2.4136   2.4997

          k = 0.1250 0.3125 0.0000 ( 37207 PWs)   bands (ev):

    -8.9322  -8.2650  -7.1712  -5.6983  -5.5675  -4.9148  -3.8828  -3.8448
    -2.4288  -2.2946  -1.7028  -1.6845  -0.6328  -0.6200  -0.2055   0.7781
     0.8832   1.4612   1.5189   2.2776   2.5058   2.5735

          k = 0.1250 0.3750 0.0000 ( 37189 PWs)   bands (ev):

    -8.5422  -7.8766  -6.7853  -6.2954  -5.6393  -5.3159  -4.5635  -3.5046
    -3.1158  -1.9497  -1.4029  -1.3327  -1.2328  -0.2689   0.1547   0.2007
     0.8209   0.8291   1.1319   1.8587   2.2719   2.6107

          k = 0.1250 0.4375 0.0000 ( 37163 PWs)   bands (ev):

    -8.0827  -7.4190  -6.9582  -6.3307  -6.2993  -5.2186  -4.8653  -3.7637
    -3.0593  -1.9742  -1.5172  -0.9159  -0.8663  -0.4058   0.0998   0.1942
     0.2704   0.5847   1.2358   1.4573   1.7645   2.6477

          k = 0.1250-0.5000 0.0000 ( 37170 PWs)   bands (ev):

    -7.5544  -7.5544  -6.8929  -6.8929  -5.8081  -5.8081  -4.3475  -4.3475
    -2.5482  -2.5482  -1.0298  -1.0298  -0.3684  -0.3684  -0.3577  -0.3577
     0.6765   0.6765   1.0630   1.0630   2.1001   2.1001

          k = 0.1875 0.1875 0.0000 ( 37147 PWs)   bands (ev):

    -9.3232  -8.6545  -7.5581  -6.0819  -4.2624  -3.7581  -3.7581  -3.1164
    -3.1164  -2.0775  -2.0501  -2.0501  -0.6284  -0.6284  -0.5682   1.1225
     1.1225   1.5517   2.2206   2.3580   2.8269   2.8269

          k = 0.1875 0.2500 0.0000 ( 37175 PWs)   bands (ev):

    -9.0743  -8.4065  -7.3118  -5.8377  -4.6050  -4.0208  -3.9584  -3.5180
    -2.9608  -2.8030  -1.8396  -1.8238  -1.4454  -0.4029  -0.3380   0.3218
     0.7750   1.3361   1.4133   2.3953   2.4442   2.6209

          k = 0.1875 0.3125 0.0000 ( 37186 PWs)   bands (ev):

    -8.7548  -8.0884  -6.9957  -5.5244  -5.3944  -4.7427  -3.7109  -3.6760
    -3.2139  -2.5626  -2.2315  -1.5370  -1.5048  -0.4738  -0.0658  -0.0440
     0.0293   0.6600   1.4692   1.6920   1.9006   2.8546

          k = 0.1875 0.3750 0.0000 ( 37171 PWs)   bands (ev):

    -8.3653  -7.7004  -6.6103  -6.1213  -5.4660  -5.1424  -4.3919  -3.3334
    -2.9669  -2.8136  -2.1957  -1.1863  -1.1545  -1.1387  -0.6441  -0.0424
     0.2806   0.3213   0.9696   1.0041   2.0846   2.4113

          k = 0.1875 0.4375 0.0000 ( 37190 PWs)   bands (ev):

    -7.9063  -7.2434  -6.7833  -6.1563  -6.1250  -5.0458  -4.6925  -3.5935
    -2.8893  -2.3956  -1.8610  -1.6883  -1.3392  -0.7065  -0.6906  -0.6723
     0.3683   0.3782   0.7002   0.7328   1.8093   1.8216

          k = 0.1875-0.5000 0.0000 ( 37202 PWs)   bands (ev):

    -7.3787  -7.3787  -6.7179  -6.7179  -5.6344  -5.6344  -4.1757  -4.1757
    -2.3810  -2.3810  -1.8937  -1.8937  -1.2392  -1.2392  -0.2884  -0.2884
    -0.1052  -0.1052   1.0721   1.0721   1.3974   1.3974

          k = 0.2500 0.2500 0.0000 ( 37217 PWs)   bands (ev):

    -8.8257  -8.1590  -7.0659  -5.5940  -4.3650  -4.3650  -3.7797  -3.7198
    -3.7198  -2.6472  -2.6472  -1.6052  -1.2201  -1.2201  -0.1103  -0.0304
     0.5426   0.5427   0.6010   1.6338   2.6598   2.6598

          k = 0.2500 0.3125 0.0000 ( 37224 PWs)   bands (ev):

    -8.5068  -7.8414  -6.7503  -5.2812  -5.1524  -4.5030  -4.0550  -3.4983
    -3.4707  -3.3392  -2.3506  -1.9823  -1.3219  -0.9275  -0.7685  -0.2030
    -0.1658   0.1893   0.8200   0.8829   1.9688   2.3032

          k = 0.2500 0.3750 0.0000 ( 37195 PWs)   bands (ev):

    -8.1179  -7.4541  -6.3656  -5.8779  -5.2240  -4.9000  -4.1535  -3.6810
    -3.0944  -3.0267  -2.7034  -1.9661  -1.5306  -0.9427  -0.8929  -0.8618
    -0.5183   0.1915   0.5342   1.0129   1.4642   1.6263

          k = 0.2500 0.4375 0.0000 ( 37231 PWs)   bands (ev):

    -7.6597  -6.9978  -6.5386  -5.9125  -5.8816  -4.8045  -4.4512  -3.3737
    -3.2125  -2.6531  -2.5899  -2.1525  -1.5594  -1.5305  -1.4969  -0.5537
    -0.3626  -0.1054   0.5750   0.8110   1.1452   1.7082

          k = 0.2500-0.5000 0.0000 ( 37208 PWs)   bands (ev):

    -7.1330  -7.1330  -6.4733  -6.4733  -5.3916  -5.3916  -3.9361  -3.9361
    -2.7233  -2.7233  -2.1918  -2.1918  -2.0223  -2.0223  -1.0298  -1.0298
     0.0364   0.0364   0.3809   0.3809   1.4953   1.4953

          k = 0.3125 0.3125 0.0000 ( 37223 PWs)   bands (ev):

    -8.1885  -7.5244  -6.4355  -4.9693  -4.8423  -4.8423  -4.1945  -4.1944
    -3.1629  -3.1179  -3.1179  -1.6873  -1.6873  -1.5950  -0.9607  -0.9258
     0.0831   0.0831   0.1284   0.4679   1.5643   2.2185

          k = 0.3125 0.3750 0.0000 ( 37249 PWs)   bands (ev):

    -7.8005  -7.1380  -6.0517  -5.5656  -4.9142  -4.5892  -4.4622  -3.9042
    -3.7464  -2.7894  -2.7506  -2.3891  -2.2835  -1.6274  -1.3267  -0.6875
    -0.6011  -0.4927   0.4266   0.6796   1.0176   1.5834

          k = 0.3125 0.4375 0.0000 ( 37234 PWs)   bands (ev):

    -7.3433  -6.6828  -6.2248  -5.5997  -5.5693  -4.4963  -4.1422  -4.0183
    -3.3623  -3.0425  -2.9224  -2.3911  -2.3002  -2.2251  -1.2802  -1.2265
    -0.8464  -0.1644   0.1866   0.6822   1.1429   1.2986

          k = 0.3125-0.5000 0.0000 ( 37220 PWs)   bands (ev):

    -6.8178  -6.8178  -6.1595  -6.1595  -5.0805  -5.0805  -3.6460  -3.6460
    -3.4815  -3.4815  -2.8560  -2.8560  -1.8309  -1.8308  -1.7953  -1.7953
    -0.3665  -0.3665   0.3086   0.3086   1.4524   1.4524

          k = 0.3750 0.3750 0.0000 ( 37286 PWs)   bands (ev):

    -7.4135  -6.7527  -5.6691  -5.1853  -5.1853  -4.5357  -4.5357  -4.2110
    -3.4567  -3.4567  -2.9890  -2.4576  -2.2931  -2.0238  -2.0238  -1.2924
    -0.2483  -0.2482  -0.2316   0.1215   1.2329   1.8953

          k = 0.3750 0.4375 0.0000 ( 37232 PWs)   bands (ev):

    -6.9576  -6.2988  -5.8422  -5.2187  -5.1895  -4.7353  -4.1759  -4.0199
    -3.7824  -3.6167  -3.0191  -2.9898  -2.6617  -1.9669  -1.9285  -1.5949
    -0.8681  -0.4980   0.1623   0.1747   1.3223   1.3234

          k = 0.3750-0.5000 0.0000 ( 37250 PWs)   bands (ev):

    -6.4335  -6.4335  -5.7771  -5.7771  -4.7026  -4.7026  -4.2219  -4.2219
    -3.5649  -3.5649  -3.2466  -3.2466  -2.5020  -2.5020  -1.4835  -1.4835
    -1.0447  -1.0447   0.4826   0.4826   0.9479   0.9479

          k = 0.4375 0.4375 0.0000 ( 37288 PWs)   bands (ev):

    -6.5032  -5.8465  -5.3919  -5.3919  -4.7714  -4.7413  -4.7413  -4.2899
    -3.6609  -3.6609  -3.6326  -3.3148  -2.5694  -2.2266  -2.2266  -1.5514
    -1.1110  -0.4481  -0.4481   0.4159   0.8826   1.6994

          k = 0.4375-0.5000 0.0000 ( 37302 PWs)   bands (ev):

    -5.9808  -5.9808  -5.3275  -5.3275  -4.8723  -4.8723  -4.3121  -4.3121
    -4.1571  -4.1571  -3.1539  -3.1539  -2.7984  -2.7984  -1.7295  -1.7295
    -1.0021  -1.0021   0.0295   0.0295   1.1910   1.1910

          k =-0.5000-0.5000 0.0000 ( 37264 PWs)   bands (ev):

    -5.4609  -5.4609  -5.4609  -5.4609  -4.8099  -4.8099  -4.8099  -4.8099
    -3.7291  -3.7291  -3.7291  -3.7291  -2.2943  -2.2943  -2.2943  -2.2943
    -0.5149  -0.5149  -0.5149  -0.5149   1.6339   1.6339

     the Fermi energy is     1.0523 ev

!    total energy              =    -149.45916775 Ry
     Harris-Foulkes estimate   =    -149.45916780 Ry
     estimated scf accuracy    <       0.00000004 Ry

     The total energy is the sum of the following terms:

     one-electron contribution =    -779.62237811 Ry
     hartree contribution      =     398.60051508 Ry
     xc contribution           =    -119.99830331 Ry
     ewald contribution        =     351.56144637 Ry
     smearing contrib. (-TS)   =      -0.00044779 Ry

     convergence has been achieved in  20 iterations

     negative rho (up, down):  6.039E-06 0.000E+00

     Forces acting on atoms (cartesian axes, Ry/au):

     atom    1 type  1   force =     0.00000000    0.00000000   -0.00248052
     atom    2 type  1   force =     0.00000000    0.00000000   -0.00248052
     atom    3 type  1   force =     0.00000000    0.00000000    0.00195852
     atom    4 type  1   force =     0.00000000    0.00000000    0.00195852
     atom    5 type  1   force =     0.00000000    0.00000000   -0.00038972
     atom    6 type  1   force =     0.00000000    0.00000000   -0.00038966
     atom    7 type  1   force =     0.00000000    0.00000000    0.00038633
     atom    8 type  1   force =     0.00000000    0.00000000    0.00038633
     atom    9 type  1   force =     0.00000000    0.00000000   -0.00194558
     atom   10 type  1   force =     0.00000000    0.00000000   -0.00194552
     atom   11 type  1   force =     0.00000000    0.00000000    0.00247090
     atom   12 type  1   force =     0.00000000    0.00000000    0.00247090

     Total force =     0.006353     Total SCF correction =     0.000182


     Computing stress (Cartesian axis) and pressure


     negative rho (up, down):  6.039E-06 0.000E+00
          total   stress  (Ry/bohr**3)                   (kbar)     P=   -5.89
  -0.00006845   0.00000000   0.00000000        -10.07      0.00      0.00
   0.00000000  -0.00006845   0.00000000          0.00    -10.07      0.00
   0.00000000   0.00000000   0.00001682          0.00      0.00      2.47


     BFGS Geometry Optimization

     number of scf cycles    =   1
     number of bfgs steps    =   0

     energy   new            =    -149.4591677549 Ry

     new trust radius        =       0.0024805166 bohr
     new conv_thr            =       0.0000010000 Ry


ATOMIC_POSITIONS (crystal)
Al       0.000000000   0.000000000  -0.000046596
Al       0.500000000   0.500000000  -0.000046596
Al       0.500000000   0.000000000   0.071465362
Al       0.000000000   0.500000000   0.071465362
Al       0.000000000   0.000000000   0.142849822
Al       0.500000000   0.500000000   0.142849823
Al       0.500000000   0.000000000   0.214292971
Al       0.000000000   0.500000000   0.214292971
Al       0.000000000   0.000000000   0.285677739
Al       0.500000000   0.500000000   0.285677740
Al       0.500000000   0.000000000   0.357189272
Al       0.000000000   0.500000000   0.357189272



     Writing output data file Al_100_3_4.save/
     NEW-OLD atomic charge density approx. for the potential

     negative rho (up, down):  5.863E-06 0.000E+00

     total cpu time spent up to now is      601.7 secs

     Self-consistent Calculation

     iteration #  1     ecut=    80.00 Ry     beta= 0.30
     Davidson diagonalization with overlap
     ethr =  1.00E-06,  avg # of iterations =  2.0

     Threshold (ethr) on eigenvalues was too large:
     Diagonalizing with lowered threshold

     Davidson diagonalization with overlap
     ethr =  3.10E-08,  avg # of iterations =  2.9

     negative rho (up, down):  5.259E-06 0.000E+00

     total cpu time spent up to now is      661.1 secs

     total energy              =    -149.45920598 Ry
     Harris-Foulkes estimate   =    -149.45920663 Ry
     estimated scf accuracy    <       0.00001462 Ry

     iteration #  2     ecut=    80.00 Ry     beta= 0.30
     Davidson diagonalization with overlap
     ethr =  4.06E-08,  avg # of iterations =  1.0

     negative rho (up, down):  3.651E-06 0.000E+00

     total cpu time spent up to now is      685.7 secs

     total energy              =    -149.45920456 Ry
     Harris-Foulkes estimate   =    -149.45920608 Ry
     estimated scf accuracy    <       0.00000869 Ry

     iteration #  3     ecut=    80.00 Ry     beta= 0.30
     Davidson diagonalization with overlap
     ethr =  2.42E-08,  avg # of iterations =  2.5

     negative rho (up, down):  6.016E-06 0.000E+00

     total cpu time spent up to now is      712.1 secs

     End of self-consistent calculation

          k = 0.0000 0.0000 0.0000 ( 37267 PWs)   bands (ev):

    -9.9663  -9.2933  -8.1911  -6.7138  -4.8886  -2.6980  -1.6982  -1.6982
    -1.1659  -1.0791  -1.0791  -0.3302  -0.3302  -0.0590  -0.0590   0.3062
     0.3062   1.3203   1.3203   1.4536   1.4538   1.6775

          k = 0.0000 0.0625 0.0000 ( 37205 PWs)   bands (ev):

    -9.9306  -9.2577  -8.1557  -6.6787  -4.8539  -2.6635  -2.2670  -1.6654
    -1.6362  -1.1328  -1.0463  -0.6055  -0.2948  -0.0262   0.2759   0.3956
     0.7752   0.9120   1.3531   1.5463   1.7102   2.0097

          k = 0.0000 0.1250 0.0000 ( 37193 PWs)   bands (ev):

    -9.8234  -9.1509  -8.0496  -6.5735  -4.7497  -3.1688  -2.5601  -2.5284
    -1.5670  -1.4804  -1.0334  -0.9478  -0.2351  -0.0187   0.0722   0.4682
     1.3860   1.4513   1.5144   1.7020   1.8077   2.1003

          k = 0.0000 0.1875 0.0000 ( 37198 PWs)   bands (ev):

    -9.6449  -8.9732  -7.8730  -6.3984  -4.5764  -4.0660  -3.4194  -2.3881
    -2.3604  -1.4029  -0.9464  -0.8678  -0.7838  -0.0050   0.2362   0.5555
     0.9390   1.6151   1.7228   1.9680   2.5678   2.9456

          k = 0.0000 0.2500 0.0000 ( 37192 PWs)   bands (ev):

    -9.3954  -8.7247  -7.6261  -6.1536  -4.9158  -4.3341  -4.2644  -3.1975
    -2.1479  -1.7687  -1.1732  -0.6362  -0.5541  -0.0234   0.2213   0.4658
     0.9438   1.8443   1.9101   2.1854   2.2432   3.0315

          k = 0.0000 0.3125 0.0000 ( 37174 PWs)   bands (ev):

    -9.0753  -8.4058  -7.3093  -5.8395  -5.7072  -5.0520  -4.0232  -3.9786
    -2.5404  -1.8402  -0.8778  -0.7692  -0.3388  -0.2587   0.4937   0.7610
     1.2328   1.4395   2.1390   2.2758   2.3111   2.4399

          k = 0.0000 0.3750 0.0000 ( 37172 PWs)   bands (ev):

    -8.6849  -8.0170  -6.9231  -6.4359  -5.7774  -5.4566  -4.6986  -3.6444
    -3.2528  -1.4685  -1.4660  -0.5166   0.0239   0.1024   0.5480   1.0776
     1.1218   1.5858   1.5947   2.1153   2.2040   2.4991

          k = 0.0000 0.4375 0.0000 ( 37222 PWs)   bands (ev):

    -8.2249  -7.5589  -7.0994  -6.4680  -6.4380  -5.3546  -5.0056  -3.9024
    -3.1984  -2.1087  -1.0272  -0.0897   0.0248   0.4514   0.5292   0.9615
     1.4024   1.4910   1.5483   1.5800   2.0414   2.3492

          k = 0.0000-0.5000 0.0000 ( 37186 PWs)   bands (ev):

    -7.6961  -7.6961  -7.0323  -7.0323  -5.9448  -5.9448  -4.4871  -4.4871
    -2.6860  -2.6860  -0.5269  -0.5269   0.4030   0.4030   0.9421   0.9421
     1.0217   1.0217   1.8648   1.8648   2.0403   2.0403

          k = 0.0625 0.0625 0.0000 ( 37181 PWs)   bands (ev):

    -9.8949  -9.2221  -8.1204  -6.6437  -4.8192  -2.6290  -2.2338  -2.2338
    -1.6034  -1.6034  -1.0997  -0.5648  -0.5648   0.3286   0.3286   0.8333
     0.8334   0.9781   0.9782   1.7425   2.0838   2.0840

          k = 0.0625 0.1250 0.0000 ( 37200 PWs)   bands (ev):

    -9.7877  -9.1154  -8.0143  -6.5385  -4.7151  -3.1350  -2.5257  -2.4956
    -2.1328  -1.5375  -1.4067  -1.0003  -0.4684  -0.0364   0.4537   0.9214
     1.0632   1.4338   1.7564   1.8385   1.9389   2.2813

          k = 0.0625 0.1875 0.0000 ( 37177 PWs)   bands (ev):

    -9.6093  -8.9377  -7.8377  -6.3634  -4.5417  -4.0318  -3.3856  -2.3538
    -2.3284  -1.9672  -1.3301  -0.9090  -0.8348  -0.2886   0.6109   0.7972
     1.1119   1.3277   1.9928   2.2965   2.7319   3.1082

          k = 0.0625 0.2500 0.0000 ( 37203 PWs)   bands (ev):

    -9.3598  -8.6892  -7.5909  -6.1187  -4.8813  -4.2995  -4.2302  -3.1638
    -2.1138  -1.7779  -1.6877  -1.1007  -0.6033  -0.0599   0.0294   0.8319
     1.3334   1.5293   2.1575   2.1619   2.5953   2.5999

          k = 0.0625 0.3125 0.0000 ( 37175 PWs)   bands (ev):

    -9.0397  -8.3704  -7.2742  -5.8047  -5.6725  -5.0175  -3.9888  -3.9445
    -2.5074  -1.8064  -1.4307  -0.8441  -0.6831  -0.3062   0.2362   1.0486
     1.5424   1.6243   1.7264   1.8242   2.3733   2.5529

          k = 0.0625 0.3750 0.0000 ( 37193 PWs)   bands (ev):

    -8.6495  -7.9817  -6.8880  -6.4010  -5.7427  -5.4219  -4.6642  -3.6101
    -3.2189  -1.4372  -1.4330  -1.0675  -0.4258   0.0562   0.5688   0.7207
     1.0563   1.5855   1.6863   1.9316   2.1548   2.2557

          k = 0.0625 0.4375 0.0000 ( 37206 PWs)   bands (ev):

    -8.1896  -7.5237  -7.0643  -6.4330  -6.4031  -5.3200  -4.9710  -3.8682
    -3.1642  -2.0754  -0.9963  -0.6445   0.0028   0.0887   0.4369   0.4822
     1.0385   1.0621   1.5196   1.9794   2.0880   2.4412

          k = 0.0625-0.5000 0.0000 ( 37210 PWs)   bands (ev):

    -7.6609  -7.6609  -6.9972  -6.9972  -5.9100  -5.9100  -4.4527  -4.4527
    -2.6521  -2.6521  -0.5144  -0.5144  -0.1036  -0.1036   0.4976   0.4976
     0.9752   0.9752   1.5308   1.5308   2.4372   2.4372

          k = 0.1250 0.1250 0.0000 ( 37179 PWs)   bands (ev):

    -9.6806  -9.0087  -7.9083  -6.4334  -4.6110  -3.0338  -3.0338  -2.4226
    -2.3953  -2.3953  -1.3373  -1.3373  -0.9011   0.0697   0.0697   1.5196
     1.5196   1.7752   1.7752   1.9265   2.2092   2.2092

          k = 0.1250 0.1875 0.0000 ( 37156 PWs)   bands (ev):

    -9.5023  -8.8311  -7.7319  -6.2585  -4.4379  -3.9294  -3.2847  -2.8635
    -2.2966  -2.2511  -2.1472  -1.1792  -0.7884  -0.7358   0.2311   0.9579
     1.6762   1.9611   2.0238   2.3516   2.5747   2.7168

          k = 0.1250 0.2500 0.0000 ( 37165 PWs)   bands (ev):

    -9.2530  -8.5829  -7.4853  -6.0140  -4.7780  -4.1959  -4.1276  -3.0641
    -2.6290  -2.0117  -1.9811  -1.6318  -0.9270  -0.5047   0.1183   0.4954
     1.6024   1.8320   2.1210   2.2686   2.4109   2.4972

          k = 0.1250 0.3125 0.0000 ( 37207 PWs)   bands (ev):

    -8.9332  -8.2643  -7.1687  -5.7002  -5.5685  -4.9141  -3.8855  -3.8423
    -2.4306  -2.2956  -1.7056  -1.6836  -0.6302  -0.6226  -0.2083   0.7763
     0.8822   1.4587   1.5198   2.2763   2.5075   2.5708

          k = 0.1250 0.3750 0.0000 ( 37189 PWs)   bands (ev):

    -8.5432  -7.8759  -6.7829  -6.2964  -5.6386  -5.3177  -4.5610  -3.5072
    -3.1177  -1.9507  -1.4038  -1.3354  -1.2337  -0.2663   0.1519   0.1997
     0.8183   0.8299   1.1301   1.8615   2.2693   2.6096

          k = 0.1250 0.4375 0.0000 ( 37163 PWs)   bands (ev):

    -8.0837  -7.4183  -6.9592  -6.3283  -6.2985  -5.2161  -4.8672  -3.7656
    -3.0619  -1.9768  -1.5182  -0.9185  -0.8655  -0.4070   0.0998   0.1950
     0.2704   0.5820   1.2386   1.4551   1.7622   2.6459

          k = 0.1250-0.5000 0.0000 ( 37170 PWs)   bands (ev):

    -7.5554  -7.5554  -6.8921  -6.8921  -5.8057  -5.8057  -4.3494  -4.3494
    -2.5508  -2.5508  -1.0309  -1.0309  -0.3676  -0.3676  -0.3604  -0.3604
     0.6793   0.6793   1.0603   1.0603   2.0982   2.0982

          k = 0.1875 0.1875 0.0000 ( 37147 PWs)   bands (ev):

    -9.3242  -8.6538  -7.5557  -6.0838  -4.2650  -3.7591  -3.7591  -3.1157
    -3.1156  -2.0803  -2.0475  -2.0474  -0.6303  -0.6303  -0.5710   1.1199
     1.1199   1.5505   2.2215   2.3554   2.8256   2.8256

          k = 0.1875 0.2500 0.0000 ( 37175 PWs)   bands (ev):

    -9.0753  -8.4058  -7.3093  -5.8396  -4.6061  -4.0234  -3.9577  -3.5191
    -2.9592  -2.8012  -1.8424  -1.8212  -1.4472  -0.4048  -0.3408   0.3194
     0.7740   1.3336   1.4142   2.3968   2.4417   2.6195

          k = 0.1875 0.3125 0.0000 ( 37186 PWs)   bands (ev):

    -8.7558  -8.0876  -6.9932  -5.5263  -5.3954  -4.7419  -3.7135  -3.6735
    -3.2150  -2.5618  -2.2332  -1.5398  -1.5023  -0.4765  -0.0674  -0.0468
     0.0282   0.6608   1.4668   1.6948   1.8978   2.8519

          k = 0.1875 0.3750 0.0000 ( 37171 PWs)   bands (ev):

    -8.3663  -7.6997  -6.6079  -6.1223  -5.4653  -5.1443  -4.3894  -3.3360
    -2.9688  -2.8146  -2.1948  -1.1890  -1.1572  -1.1362  -0.6453  -0.0417
     0.2789   0.3186   0.9670   1.0068   2.0819   2.4088

          k = 0.1875 0.4375 0.0000 ( 37190 PWs)   bands (ev):

    -7.9073  -7.2426  -6.7843  -6.1538  -6.1243  -5.0433  -4.6944  -3.5953
    -2.8919  -2.3965  -1.8622  -1.6889  -1.3403  -0.7040  -0.6934  -0.6715
     0.3657   0.3809   0.6984   0.7300   1.8075   1.8190

          k = 0.1875-0.5000 0.0000 ( 37202 PWs)   bands (ev):

    -7.3797  -7.3797  -6.7172  -6.7172  -5.6320  -5.6320  -4.1775  -4.1775
    -2.3836  -2.3836  -1.8947  -1.8947  -1.2385  -1.2385  -0.2890  -0.2890
    -0.1047  -0.1047   1.0698   1.0698   1.3952   1.3952

          k = 0.2500 0.2500 0.0000 ( 37217 PWs)   bands (ev):

    -8.8267  -8.1583  -7.0634  -5.5958  -4.3660  -4.3660  -3.7824  -3.7190
    -3.7190  -2.6446  -2.6446  -1.6080  -1.2220  -1.2220  -0.1131  -0.0314
     0.5401   0.5401   0.6018   1.6365   2.6574   2.6574

          k = 0.2500 0.3125 0.0000 ( 37224 PWs)   bands (ev):

    -8.5078  -7.8406  -6.7479  -5.2831  -5.1534  -4.5022  -4.0560  -3.4967
    -3.4733  -3.3374  -2.3480  -1.9842  -1.3245  -0.9295  -0.7696  -0.2054
    -0.1651   0.1866   0.8175   0.8856   1.9662   2.3014

          k = 0.2500 0.3750 0.0000 ( 37195 PWs)   bands (ev):

    -8.1189  -7.4534  -6.3632  -5.8789  -5.2232  -4.9019  -4.1510  -3.6820
    -3.0971  -3.0259  -2.7052  -1.9636  -1.5316  -0.9455  -0.8957  -0.8610
    -0.5199   0.1942   0.5315   1.0105   1.4614   1.6245

          k = 0.2500 0.4375 0.0000 ( 37231 PWs)   bands (ev):

    -7.6607  -6.9971  -6.5396  -5.9100  -5.8808  -4.8020  -4.4531  -3.3756
    -3.2135  -2.6557  -2.5891  -2.1535  -1.5621  -1.5279  -1.4961  -0.5545
    -0.3619  -0.1071   0.5724   0.8087   1.1430   1.7056

          k = 0.2500-0.5000 0.0000 ( 37208 PWs)   bands (ev):

    -7.1340  -7.1340  -6.4726  -6.4726  -5.3892  -5.3892  -3.9380  -3.9380
    -2.7243  -2.7243  -2.1931  -2.1931  -2.0228  -2.0228  -1.0273  -1.0273
     0.0339   0.0339   0.3791   0.3791   1.4927   1.4927

          k = 0.3125 0.3125 0.0000 ( 37223 PWs)   bands (ev):

    -8.1895  -7.5237  -6.4331  -4.9712  -4.8433  -4.8433  -4.1937  -4.1937
    -3.1655  -3.1154  -3.1153  -1.6892  -1.6892  -1.5961  -0.9634  -0.9251
     0.0806   0.0806   0.1311   0.4652   1.5625   2.2162

          k = 0.3125 0.3750 0.0000 ( 37249 PWs)   bands (ev):

    -7.8015  -7.1373  -6.0493  -5.5666  -4.9135  -4.5911  -4.4632  -3.9026
    -3.7447  -2.7920  -2.7480  -2.3910  -2.2845  -1.6267  -1.3287  -0.6884
    -0.6035  -0.4920   0.4242   0.6774   1.0154   1.5808

          k = 0.3125 0.4375 0.0000 ( 37234 PWs)   bands (ev):

    -7.3444  -6.6820  -6.2258  -5.5973  -5.5686  -4.4938  -4.1441  -4.0194
    -3.3615  -3.0442  -2.9234  -2.3925  -2.2977  -2.2255  -1.2830  -1.2240
    -0.8480  -0.1670   0.1848   0.6798   1.1401   1.2960

          k = 0.3125-0.5000 0.0000 ( 37220 PWs)   bands (ev):

    -6.8188  -6.8188  -6.1588  -6.1588  -5.0780  -5.0780  -3.6479  -3.6479
    -3.4825  -3.4825  -2.8552  -2.8552  -1.8335  -1.8335  -1.7927  -1.7927
    -0.3683  -0.3683   0.3060   0.3060   1.4498   1.4498

          k = 0.3750 0.3750 0.0000 ( 37286 PWs)   bands (ev):

    -7.4145  -6.7520  -5.6667  -5.1863  -5.1863  -4.5350  -4.5350  -4.2129
    -3.4542  -3.4541  -2.9900  -2.4591  -2.2935  -2.0257  -2.0257  -1.2900
    -0.2508  -0.2507  -0.2342   0.1197   1.2303   1.8929

          k = 0.3750 0.4375 0.0000 ( 37232 PWs)   bands (ev):

    -6.9586  -6.2980  -5.8432  -5.2163  -5.1888  -4.7364  -4.1743  -4.0182
    -3.7843  -3.6177  -3.0165  -2.9890  -2.6636  -1.9696  -1.9260  -1.5969
    -0.8705  -0.4998   0.1598   0.1721   1.3197   1.3207

          k = 0.3750-0.5000 0.0000 ( 37250 PWs)   bands (ev):

    -6.4345  -6.4345  -5.7764  -5.7764  -4.7001  -4.7001  -4.2229  -4.2229
    -3.5641  -3.5641  -3.2484  -3.2484  -2.4995  -2.4995  -1.4863  -1.4863
    -1.0463  -1.0463   0.4802   0.4802   0.9451   0.9451

          k = 0.4375 0.4375 0.0000 ( 37288 PWs)   bands (ev):

    -6.5042  -5.8457  -5.3929  -5.3929  -4.7690  -4.7405  -4.7405  -4.2909
    -3.6584  -3.6583  -3.6318  -3.3166  -2.5670  -2.2285  -2.2285  -1.5542
    -1.1126  -0.4506  -0.4506   0.4135   0.8798   1.6970

          k = 0.4375-0.5000 0.0000 ( 37302 PWs)   bands (ev):

    -5.9818  -5.9818  -5.3268  -5.3268  -4.8734  -4.8734  -4.3105  -4.3105
    -4.1555  -4.1555  -3.1513  -3.1513  -2.8003  -2.8003  -1.7315  -1.7315
    -1.0045  -1.0045   0.0270   0.0270   1.1883   1.1883

          k =-0.5000-0.5000 0.0000 ( 37264 PWs)   bands (ev):

    -5.4619  -5.4619  -5.4619  -5.4619  -4.8092  -4.8092  -4.8092  -4.8092
    -3.7266  -3.7266  -3.7265  -3.7265  -2.2962  -2.2962  -2.2962  -2.2962
    -0.5174  -0.5174  -0.5174  -0.5174   1.6315   1.6315

     the Fermi energy is     1.0512 ev

!    total energy              =    -149.45920479 Ry
     Harris-Foulkes estimate   =    -149.45920549 Ry
     estimated scf accuracy    <       0.00000073 Ry

     The total energy is the sum of the following terms:

     one-electron contribution =    -779.49472734 Ry
     hartree contribution      =     398.53179884 Ry
     xc contribution           =    -119.99702753 Ry
     ewald contribution        =     351.50120224 Ry
     smearing contrib. (-TS)   =      -0.00045100 Ry

     convergence has been achieved in   3 iterations

     negative rho (up, down):  6.016E-06 0.000E+00

     Forces acting on atoms (cartesian axes, Ry/au):

     atom    1 type  1   force =     0.00000000    0.00000000   -0.00222454
     atom    2 type  1   force =     0.00000000    0.00000000   -0.00222455
     atom    3 type  1   force =     0.00000000    0.00000000    0.00156906
     atom    4 type  1   force =     0.00000000    0.00000000    0.00156906
     atom    5 type  1   force =     0.00000000    0.00000000   -0.00022559
     atom    6 type  1   force =     0.00000000    0.00000000   -0.00022552
     atom    7 type  1   force =     0.00000000    0.00000000    0.00022584
     atom    8 type  1   force =     0.00000000    0.00000000    0.00022584
     atom    9 type  1   force =     0.00000000    0.00000000   -0.00155097
     atom   10 type  1   force =     0.00000000    0.00000000   -0.00155097
     atom   11 type  1   force =     0.00000000    0.00000000    0.00220617
     atom   12 type  1   force =     0.00000000    0.00000000    0.00220617

     Total force =     0.005438     Total SCF correction =     0.001455
     SCF correction compared to forces is large: reduce conv_thr to get better values


     Computing stress (Cartesian axis) and pressure


     negative rho (up, down):  6.016E-06 0.000E+00
          total   stress  (Ry/bohr**3)                   (kbar)     P=   -5.95
  -0.00006876   0.00000000   0.00000000        -10.11      0.00      0.00
   0.00000000  -0.00006876   0.00000000          0.00    -10.11      0.00
   0.00000000   0.00000000   0.00001618          0.00      0.00      2.38


     number of scf cycles    =   2
     number of bfgs steps    =   1

     energy   old            =    -149.4591677549 Ry
     energy   new            =    -149.4592047914 Ry

     CASE: energy  _new < energy  _old


     WARNING: bfgs curvature condition failed, Theta= 0.937
     new trust radius        =       0.0027285683 bohr
     new conv_thr            =       0.0000000100 Ry


ATOMIC_POSITIONS (crystal)
Al       0.000000000   0.000000000  -0.000097851
Al       0.500000000   0.500000000  -0.000097851
Al       0.500000000   0.000000000   0.071501899
Al       0.000000000   0.500000000   0.071501899
Al       0.000000000   0.000000000   0.142844370
Al       0.500000000   0.500000000   0.142844373
Al       0.500000000   0.000000000   0.214298423
Al       0.000000000   0.500000000   0.214298423
Al       0.000000000   0.000000000   0.285641605
Al       0.500000000   0.500000000   0.285641606
Al       0.500000000   0.000000000   0.357240124
Al       0.000000000   0.500000000   0.357240124



     Writing output data file Al_100_3_4.save/
     NEW-OLD atomic charge density approx. for the potential

     negative rho (up, down):  5.824E-06 0.000E+00

     total cpu time spent up to now is      738.1 secs

     Self-consistent Calculation

     iteration #  1     ecut=    80.00 Ry     beta= 0.30
     Davidson diagonalization with overlap
     ethr =  1.00E-06,  avg # of iterations =  2.4

     negative rho (up, down):  3.312E-06 0.000E+00

     total cpu time spent up to now is      771.0 secs

     total energy              =    -149.45924638 Ry
     Harris-Foulkes estimate   =    -149.45925402 Ry
     estimated scf accuracy    <       0.00032090 Ry

     iteration #  2     ecut=    80.00 Ry     beta= 0.30
     Davidson diagonalization with overlap
     ethr =  8.91E-07,  avg # of iterations =  1.0

     negative rho (up, down):  2.506E-07 0.000E+00

     total cpu time spent up to now is      795.0 secs

     total energy              =    -149.45922288 Ry
     Harris-Foulkes estimate   =    -149.45924820 Ry
     estimated scf accuracy    <       0.00021096 Ry

     iteration #  3     ecut=    80.00 Ry     beta= 0.30
     Davidson diagonalization with overlap
     ethr =  5.86E-07,  avg # of iterations =  2.2

     negative rho (up, down):  6.174E-07 0.000E+00

     total cpu time spent up to now is      822.7 secs

     total energy              =    -149.45923747 Ry
     Harris-Foulkes estimate   =    -149.45924119 Ry
     estimated scf accuracy    <       0.00004227 Ry

     iteration #  4     ecut=    80.00 Ry     beta= 0.30
     Davidson diagonalization with overlap
     ethr =  1.17E-07,  avg # of iterations =  1.3

     negative rho (up, down):  7.502E-07 0.000E+00

     total cpu time spent up to now is      847.3 secs

     total energy              =    -149.45923924 Ry
     Harris-Foulkes estimate   =    -149.45923932 Ry
     estimated scf accuracy    <       0.00000166 Ry

     iteration #  5     ecut=    80.00 Ry     beta= 0.30
     Davidson diagonalization with overlap
     ethr =  4.62E-09,  avg # of iterations =  3.6

     negative rho (up, down):  1.194E-06 0.000E+00

     total cpu time spent up to now is      880.2 secs

     total energy              =    -149.45923949 Ry
     Harris-Foulkes estimate   =    -149.45923951 Ry
     estimated scf accuracy    <       0.00000023 Ry

     iteration #  6     ecut=    80.00 Ry     beta= 0.30
     Davidson diagonalization with overlap
     ethr =  6.41E-10,  avg # of iterations =  2.1

     negative rho (up, down):  1.528E-06 0.000E+00

     total cpu time spent up to now is      907.8 secs

     total energy              =    -149.45923955 Ry
     Harris-Foulkes estimate   =    -149.45923951 Ry
     estimated scf accuracy    <       0.00000034 Ry

     iteration #  7     ecut=    80.00 Ry     beta= 0.30
     Davidson diagonalization with overlap
     ethr =  6.41E-10,  avg # of iterations =  2.6

     negative rho (up, down):  2.034E-06 0.000E+00

     total cpu time spent up to now is      937.8 secs

     total energy              =    -149.45923945 Ry
     Harris-Foulkes estimate   =    -149.45923960 Ry
     estimated scf accuracy    <       0.00000237 Ry

     iteration #  8     ecut=    80.00 Ry     beta= 0.30
     Davidson diagonalization with overlap
     ethr =  6.41E-10,  avg # of iterations =  2.3

     negative rho (up, down):  2.823E-06 0.000E+00

     total cpu time spent up to now is      966.5 secs

     total energy              =    -149.45923947 Ry
     Harris-Foulkes estimate   =    -149.45923949 Ry
     estimated scf accuracy    <       0.00000029 Ry

     iteration #  9     ecut=    80.00 Ry     beta= 0.30
     Davidson diagonalization with overlap
     ethr =  6.41E-10,  avg # of iterations =  1.9

     negative rho (up, down):  5.994E-06 0.000E+00

     total cpu time spent up to now is      991.2 secs

     End of self-consistent calculation

          k = 0.0000 0.0000 0.0000 ( 37267 PWs)   bands (ev):

    -9.9656  -9.2898  -8.1861  -6.7133  -4.8892  -2.6985  -1.6975  -1.6975
    -1.1666  -1.0754  -1.0754  -0.3294  -0.3293  -0.0534  -0.0534   0.3093
     0.3093   1.3208   1.3208   1.4588   1.4588   1.6765

          k = 0.0000 0.0625 0.0000 ( 37205 PWs)   bands (ev):

    -9.9299  -9.2542  -8.1507  -6.6782  -4.8544  -2.6640  -2.2663  -1.6647
    -1.6325  -1.1335  -1.0426  -0.6002  -0.2941  -0.0206   0.2778   0.3977
     0.7769   0.9142   1.3535   1.5512   1.7092   2.0149

          k = 0.0000 0.1250 0.0000 ( 37193 PWs)   bands (ev):

    -9.8227  -9.1474  -8.0447  -6.5731  -4.7503  -3.1681  -2.5606  -2.5248
    -1.5663  -1.4752  -1.0341  -0.9441  -0.2349  -0.0176   0.0778   0.4717
     1.3865   1.4517   1.5183   1.7012   1.8067   2.1044

          k = 0.0000 0.1875 0.0000 ( 37198 PWs)   bands (ev):

    -9.6442  -8.9697  -7.8681  -6.3979  -4.5769  -4.0653  -3.4158  -2.3886
    -2.3553  -1.4022  -0.9458  -0.8685  -0.7801  -0.0042   0.2418   0.5582
     0.9392   1.6155   1.7270   1.9671   2.5682   2.9454

          k = 0.0000 0.2500 0.0000 ( 37192 PWs)   bands (ev):

    -9.3947  -8.7212  -7.6211  -6.1531  -4.9151  -4.3346  -4.2609  -3.1924
    -2.1484  -1.7682  -1.1725  -0.6369  -0.5504  -0.0237   0.2221   0.4714
     0.9469   1.8447   1.9130   2.1845   2.2445   3.0321

          k = 0.0000 0.3125 0.0000 ( 37174 PWs)   bands (ev):

    -9.0745  -8.4023  -7.3043  -5.8390  -5.7065  -5.0485  -4.0238  -3.9736
    -2.5398  -1.8407  -0.8771  -0.7696  -0.3395  -0.2550   0.4944   0.7666
     1.2361   1.4391   2.1394   2.2765   2.3157   2.4391

          k = 0.0000 0.3750 0.0000 ( 37172 PWs)   bands (ev):

    -8.6842  -8.0135  -6.9181  -6.4352  -5.7739  -5.4561  -4.6936  -3.6450
    -3.2523  -1.4690  -1.4665  -0.5159   0.0233   0.1061   0.5479   1.0780
     1.1275   1.5865   1.5980   2.1150   2.2077   2.4995

          k = 0.0000 0.4375 0.0000 ( 37222 PWs)   bands (ev):

    -8.2242  -7.5554  -7.0987  -6.4630  -6.4345  -5.3496  -5.0051  -3.9019
    -3.1989  -2.1092  -1.0277  -0.0890   0.0244   0.4508   0.5329   0.9622
     1.4031   1.4905   1.5540   1.5837   2.0448   2.3498

          k = 0.0000-0.5000 0.0000 ( 37186 PWs)   bands (ev):

    -7.6954  -7.6954  -7.0288  -7.0288  -5.9398  -5.9398  -4.4866  -4.4866
    -2.6865  -2.6865  -0.5274  -0.5274   0.4037   0.4037   0.9416   0.9416
     1.0255   1.0255   1.8654   1.8654   2.0460   2.0460

          k = 0.0625 0.0625 0.0000 ( 37181 PWs)   bands (ev):

    -9.8942  -9.2186  -8.1154  -6.6432  -4.8197  -2.6295  -2.2331  -2.2331
    -1.5998  -1.5998  -1.1003  -0.5595  -0.5594   0.3292   0.3293   0.8344
     0.8344   0.9811   0.9811   1.7415   2.0889   2.0890

          k = 0.0625 0.1250 0.0000 ( 37200 PWs)   bands (ev):

    -9.7870  -9.1119  -8.0093  -6.5380  -4.7156  -3.1343  -2.5262  -2.4920
    -2.1321  -1.5336  -1.4017  -1.0010  -0.4630  -0.0360   0.4545   0.9220
     1.0666   1.4344   1.7558   1.8375   1.9422   2.2861

          k = 0.0625 0.1875 0.0000 ( 37177 PWs)   bands (ev):

    -9.6086  -8.9342  -7.8328  -6.3629  -4.5423  -4.0311  -3.3820  -2.3543
    -2.3233  -1.9666  -1.3264  -0.9083  -0.8355  -0.2834   0.6116   0.7972
     1.1124   1.3306   1.9919   2.3009   2.7316   3.1078

          k = 0.0625 0.2500 0.0000 ( 37203 PWs)   bands (ev):

    -9.3591  -8.6857  -7.5859  -6.1182  -4.8806  -4.3001  -4.2267  -3.1587
    -2.1143  -1.7775  -1.6868  -1.0971  -0.6040  -0.0546   0.0289   0.8326
     1.3340   1.5326   2.1569   2.1618   2.5999   2.6003

          k = 0.0625 0.3125 0.0000 ( 37175 PWs)   bands (ev):

    -9.0390  -8.3669  -7.2692  -5.8042  -5.6718  -5.0140  -3.9893  -3.9394
    -2.5068  -1.8069  -1.4300  -0.8415  -0.6826  -0.3068   0.2416   1.0491
     1.5423   1.6248   1.7270   1.8276   2.3770   2.5522

          k = 0.0625 0.3750 0.0000 ( 37193 PWs)   bands (ev):

    -8.6487  -7.9782  -6.8830  -6.4003  -5.7391  -5.4214  -4.6591  -3.6106
    -3.2183  -1.4377  -1.4335  -1.0667  -0.4222   0.0556   0.5726   0.7220
     1.0570   1.5861   1.6900   1.9318   2.1570   2.2569

          k = 0.0625 0.4375 0.0000 ( 37206 PWs)   bands (ev):

    -8.1889  -7.5202  -7.0636  -6.4280  -6.3996  -5.3150  -4.9704  -3.8676
    -3.1648  -2.0759  -0.9968  -0.6438   0.0064   0.0883   0.4375   0.4816
     1.0439   1.0657   1.5191   1.9801   2.0935   2.4418

          k = 0.0625-0.5000 0.0000 ( 37210 PWs)   bands (ev):

    -7.6602  -7.6602  -6.9937  -6.9937  -5.9050  -5.9050  -4.4522  -4.4522
    -2.6527  -2.6527  -0.5148  -0.5148  -0.1030  -0.1030   0.5012   0.5012
     0.9746   0.9746   1.5362   1.5362   2.4378   2.4378

          k = 0.1250 0.1250 0.0000 ( 37179 PWs)   bands (ev):

    -9.6799  -9.0052  -7.9034  -6.4330  -4.6116  -3.0331  -3.0331  -2.4231
    -2.3918  -2.3918  -1.3320  -1.3320  -0.9017   0.0702   0.0702   1.5204
     1.5204   1.7751   1.7751   1.9256   2.2120   2.2120

          k = 0.1250 0.1875 0.0000 ( 37156 PWs)   bands (ev):

    -9.5016  -8.8276  -7.7269  -6.2580  -4.4385  -3.9287  -3.2812  -2.8628
    -2.2925  -2.2516  -2.1426  -1.1739  -0.7879  -0.7364   0.2316   0.9575
     1.6769   1.9605   2.0232   2.3551   2.5750   2.7174

          k = 0.1250 0.2500 0.0000 ( 37165 PWs)   bands (ev):

    -9.2523  -8.5794  -7.4803  -6.0135  -4.7773  -4.1965  -4.1241  -3.0590
    -2.6284  -2.0122  -1.9775  -1.6311  -0.9219  -0.5054   0.1177   0.4961
     1.6030   1.8326   2.1206   2.2723   2.4101   2.4968

          k = 0.1250 0.3125 0.0000 ( 37207 PWs)   bands (ev):

    -8.9325  -8.2608  -7.1638  -5.6997  -5.5678  -4.9105  -3.8860  -3.8372
    -2.4303  -2.2947  -1.7061  -1.6800  -0.6250  -0.6232  -0.2090   0.7769
     0.8829   1.4585   1.5234   2.2768   2.5114   2.5702

          k = 0.1250 0.3750 0.0000 ( 37189 PWs)   bands (ev):

    -8.5425  -7.8724  -6.7779  -6.2957  -5.6350  -5.3172  -4.5559  -3.5077
    -3.1172  -1.9500  -1.4023  -1.3359  -1.2321  -0.2612   0.1513   0.2004
     0.8181   0.8336   1.1306   1.8668   2.2689   2.6102

          k = 0.1250 0.4375 0.0000 ( 37163 PWs)   bands (ev):

    -8.0830  -7.4147  -6.9585  -6.3233  -6.2950  -5.2111  -4.8666  -3.7650
    -3.0624  -1.9772  -1.5175  -0.9189  -0.8620  -0.4063   0.1022   0.1986
     0.2729   0.5815   1.2439   1.4552   1.7622   2.6465

          k = 0.1250-0.5000 0.0000 ( 37170 PWs)   bands (ev):

    -7.5547  -7.5547  -6.8886  -6.8886  -5.8007  -5.8007  -4.3489  -4.3489
    -2.5513  -2.5513  -1.0302  -1.0302  -0.3640  -0.3640  -0.3609  -0.3609
     0.6846   0.6846   1.0598   1.0598   2.0988   2.0988

          k = 0.1875 0.1875 0.0000 ( 37147 PWs)   bands (ev):

    -9.3235  -8.6503  -7.5507  -6.0833  -4.2656  -3.7584  -3.7584  -3.1121
    -3.1121  -2.0808  -2.0422  -2.0422  -0.6298  -0.6298  -0.5716   1.1195
     1.1195   1.5511   2.2252   2.3546   2.8260   2.8260

          k = 0.1875 0.2500 0.0000 ( 37175 PWs)   bands (ev):

    -9.0746  -8.4023  -7.3044  -5.8391  -4.6054  -4.0240  -3.9541  -3.5184
    -2.9551  -2.7967  -1.8429  -1.8159  -1.4467  -0.4044  -0.3414   0.3190
     0.7747   1.3332   1.4179   2.4005   2.4413   2.6202

          k = 0.1875 0.3125 0.0000 ( 37186 PWs)   bands (ev):

    -8.7551  -8.0841  -6.9882  -5.5257  -5.3947  -4.7384  -3.7141  -3.6684
    -3.2143  -2.5582  -2.2325  -1.5402  -1.4972  -0.4772  -0.0667  -0.0474
     0.0289   0.6645   1.4666   1.7001   1.8971   2.8511

          k = 0.1875 0.3750 0.0000 ( 37171 PWs)   bands (ev):

    -8.3656  -7.6962  -6.6029  -6.1216  -5.4618  -5.1438  -4.3844  -3.3365
    -2.9684  -2.8136  -2.1912  -1.1894  -1.1578  -1.1310  -0.6446  -0.0382
     0.2795   0.3181   0.9668   1.0121   2.0813   2.4086

          k = 0.1875 0.4375 0.0000 ( 37190 PWs)   bands (ev):

    -7.9066  -7.2391  -6.7836  -6.1488  -6.1208  -5.0383  -4.6939  -3.5948
    -2.8924  -2.3958  -1.8611  -1.6870  -1.3396  -0.6989  -0.6938  -0.6679
     0.3655   0.3862   0.6990   0.7295   1.8080   1.8186

          k = 0.1875-0.5000 0.0000 ( 37202 PWs)   bands (ev):

    -7.3790  -7.3790  -6.7136  -6.7136  -5.6269  -5.6269  -4.1770  -4.1770
    -2.3840  -2.3840  -1.8940  -1.8940  -1.2349  -1.2349  -0.2871  -0.2871
    -0.1018  -0.1018   1.0699   1.0699   1.3953   1.3953

          k = 0.2500 0.2500 0.0000 ( 37217 PWs)   bands (ev):

    -8.8260  -8.1548  -7.0584  -5.5953  -4.3653  -4.3653  -3.7829  -3.7155
    -3.7155  -2.6394  -2.6394  -1.6085  -1.2215  -1.2215  -0.1137  -0.0307
     0.5397   0.5397   0.6055   1.6418   2.6572   2.6572

          k = 0.2500 0.3125 0.0000 ( 37224 PWs)   bands (ev):

    -8.5071  -7.8371  -6.7429  -5.2826  -5.1527  -4.4987  -4.0554  -3.4926
    -3.4738  -3.3329  -2.3428  -1.9837  -1.3249  -0.9291  -0.7690  -0.2058
    -0.1615   0.1861   0.8171   0.8909   1.9659   2.3020

          k = 0.2500 0.3750 0.0000 ( 37195 PWs)   bands (ev):

    -8.1182  -7.4498  -6.3582  -5.8782  -5.2197  -4.9014  -4.1460  -3.6814
    -3.0976  -3.0223  -2.7045  -1.9586  -1.5310  -0.9462  -0.8961  -0.8575
    -0.5192   0.1995   0.5309   1.0103   1.4607   1.6251

          k = 0.2500 0.4375 0.0000 ( 37231 PWs)   bands (ev):

    -7.6600  -6.9936  -6.5389  -5.9050  -5.8773  -4.7970  -4.4525  -3.3752
    -3.2126  -2.6562  -2.5855  -2.1528  -1.5627  -1.5228  -1.4926  -0.5528
    -0.3588  -0.1065   0.5721   0.8087   1.1431   1.7050

          k = 0.2500-0.5000 0.0000 ( 37208 PWs)   bands (ev):

    -7.1333  -7.1333  -6.4691  -6.4691  -5.3842  -5.3842  -3.9375  -3.9375
    -2.7236  -2.7236  -2.1922  -2.1922  -2.0207  -2.0207  -1.0222  -1.0222
     0.0336   0.0336   0.3797   0.3797   1.4923   1.4923

          k = 0.3125 0.3125 0.0000 ( 37223 PWs)   bands (ev):

    -8.1888  -7.5202  -6.4281  -4.9707  -4.8426  -4.8426  -4.1902  -4.1902
    -3.1661  -3.1102  -3.1102  -1.6888  -1.6887  -1.5954  -0.9639  -0.9215
     0.0802   0.0802   0.1363   0.4647   1.5631   2.2160

          k = 0.3125 0.3750 0.0000 ( 37249 PWs)   bands (ev):

    -7.8008  -7.1338  -6.0443  -5.5659  -4.9099  -4.5906  -4.4626  -3.8985
    -3.7403  -2.7925  -2.7428  -2.3905  -2.2838  -1.6232  -1.3283  -0.6869
    -0.6038  -0.4887   0.4237   0.6774   1.0155   1.5804

          k = 0.3125 0.4375 0.0000 ( 37234 PWs)   bands (ev):

    -7.3436  -6.6785  -6.2251  -5.5922  -5.5650  -4.4888  -4.1436  -4.0187
    -3.3579  -3.0436  -2.9226  -2.3917  -2.2927  -2.2234  -1.2837  -1.2190
    -0.8473  -0.1673   0.1854   0.6796   1.1395   1.2956

          k = 0.3125-0.5000 0.0000 ( 37220 PWs)   bands (ev):

    -6.8181  -6.8181  -6.1553  -6.1553  -5.0730  -5.0730  -3.6475  -3.6475
    -3.4816  -3.4816  -2.8516  -2.8516  -1.8341  -1.8341  -1.7877  -1.7877
    -0.3677  -0.3677   0.3057   0.3057   1.4492   1.4492

          k = 0.3750 0.3750 0.0000 ( 37286 PWs)   bands (ev):

    -7.4138  -6.7484  -5.6617  -5.1856  -5.1856  -4.5315  -4.5315  -4.2124
    -3.4490  -3.4490  -2.9893  -2.4583  -2.2913  -2.0252  -2.0252  -1.2849
    -0.2512  -0.2512  -0.2344   0.1203   1.2299   1.8928

          k = 0.3750 0.4375 0.0000 ( 37232 PWs)   bands (ev):

    -6.9579  -6.2945  -5.8425  -5.2113  -5.1852  -4.7357  -4.1702  -4.0138
    -3.7840  -3.6168  -3.0114  -2.9854  -2.6631  -1.9702  -1.9209  -1.5965
    -0.8709  -0.4991   0.1594   0.1718   1.3194   1.3202

          k = 0.3750-0.5000 0.0000 ( 37250 PWs)   bands (ev):

    -6.4338  -6.4338  -5.7728  -5.7728  -4.6951  -4.6951  -4.2222  -4.2222
    -3.5605  -3.5605  -3.2478  -3.2478  -2.4945  -2.4945  -1.4870  -1.4870
    -1.0456  -1.0456   0.4800   0.4800   0.9445   0.9445

          k = 0.4375 0.4375 0.0000 ( 37288 PWs)   bands (ev):

    -6.5035  -5.8422  -5.3922  -5.3922  -4.7640  -4.7371  -4.7370  -4.2903
    -3.6532  -3.6532  -3.6282  -3.3159  -2.5620  -2.2280  -2.2280  -1.5549
    -1.1119  -0.4510  -0.4510   0.4133   0.8792   1.6969

          k = 0.4375-0.5000 0.0000 ( 37302 PWs)   bands (ev):

    -5.9811  -5.9811  -5.3232  -5.3232  -4.8727  -4.8727  -4.3063  -4.3063
    -4.1510  -4.1510  -3.1462  -3.1462  -2.7998  -2.7998  -1.7311  -1.7311
    -1.0048  -1.0048   0.0266   0.0266   1.1880   1.1880

          k =-0.5000-0.5000 0.0000 ( 37264 PWs)   bands (ev):

    -5.4612  -5.4612  -5.4611  -5.4611  -4.8057  -4.8057  -4.8057  -4.8057
    -3.7214  -3.7214  -3.7214  -3.7214  -2.2958  -2.2958  -2.2958  -2.2958
    -0.5178  -0.5178  -0.5178  -0.5178   1.6314   1.6314

     the Fermi energy is     1.0523 ev

!    total energy              =    -149.45923948 Ry
     Harris-Foulkes estimate   =    -149.45923948 Ry
     estimated scf accuracy    <          3.3E-09 Ry

     The total energy is the sum of the following terms:

     one-electron contribution =    -779.37140311 Ry
     hartree contribution      =     398.47754521 Ry
     xc contribution           =    -119.99563117 Ry
     ewald contribution        =     351.43070400 Ry
     smearing contrib. (-TS)   =      -0.00045441 Ry

     convergence has been achieved in   9 iterations

     negative rho (up, down):  5.994E-06 0.000E+00

     Forces acting on atoms (cartesian axes, Ry/au):

     atom    1 type  1   force =     0.00000000    0.00000000   -0.00198295
     atom    2 type  1   force =     0.00000000    0.00000000   -0.00198297
     atom    3 type  1   force =     0.00000000    0.00000000    0.00123610
     atom    4 type  1   force =     0.00000000    0.00000000    0.00123610
     atom    5 type  1   force =     0.00000000    0.00000000   -0.00008022
     atom    6 type  1   force =     0.00000000    0.00000000   -0.00008017
     atom    7 type  1   force =     0.00000000    0.00000000    0.00007894
     atom    8 type  1   force =     0.00000000    0.00000000    0.00007894
     atom    9 type  1   force =     0.00000000    0.00000000   -0.00122730
     atom   10 type  1   force =     0.00000000    0.00000000   -0.00122733
     atom   11 type  1   force =     0.00000000    0.00000000    0.00197543
     atom   12 type  1   force =     0.00000000    0.00000000    0.00197543

     Total force =     0.004665     Total SCF correction =     0.000052


     Computing stress (Cartesian axis) and pressure


     negative rho (up, down):  5.994E-06 0.000E+00
          total   stress  (Ry/bohr**3)                   (kbar)     P=   -6.02
  -0.00006906   0.00000000   0.00000000        -10.16      0.00      0.00
   0.00000000  -0.00006906   0.00000000          0.00    -10.16      0.00
   0.00000000   0.00000000   0.00001536          0.00      0.00      2.26


     number of scf cycles    =   3
     number of bfgs steps    =   2

     energy   old            =    -149.4592047914 Ry
     energy   new            =    -149.4592394781 Ry

     CASE: energy  _new < energy  _old

     new trust radius        =       0.0040928525 bohr
     new conv_thr            =       0.0000000100 Ry


ATOMIC_POSITIONS (crystal)
Al       0.000000000   0.000000000  -0.000174733
Al       0.500000000   0.500000000  -0.000174733
Al       0.500000000   0.000000000   0.071551748
Al       0.000000000   0.500000000   0.071551748
Al       0.000000000   0.000000000   0.142839885
Al       0.500000000   0.500000000   0.142839889
Al       0.500000000   0.000000000   0.214302858
Al       0.000000000   0.500000000   0.214302858
Al       0.000000000   0.000000000   0.285592130
Al       0.500000000   0.500000000   0.285592130
Al       0.500000000   0.000000000   0.357316681
Al       0.000000000   0.500000000   0.357316681



     Writing output data file Al_100_3_4.save/
     NEW-OLD atomic charge density approx. for the potential

     negative rho (up, down):  5.719E-06 0.000E+00

     total cpu time spent up to now is     1017.3 secs

     Self-consistent Calculation

     iteration #  1     ecut=    80.00 Ry     beta= 0.30
     Davidson diagonalization with overlap
     ethr =  1.00E-06,  avg # of iterations =  2.0

     Threshold (ethr) on eigenvalues was too large:
     Diagonalizing with lowered threshold

     Davidson diagonalization with overlap
     ethr =  2.38E-08,  avg # of iterations =  3.5

     negative rho (up, down):  5.281E-06 0.000E+00

     total cpu time spent up to now is     1080.4 secs

     total energy              =    -149.45927999 Ry
     Harris-Foulkes estimate   =    -149.45928085 Ry
     estimated scf accuracy    <       0.00001146 Ry

     iteration #  2     ecut=    80.00 Ry     beta= 0.30
     Davidson diagonalization with overlap
     ethr =  3.18E-08,  avg # of iterations =  1.0

     negative rho (up, down):  4.289E-06 0.000E+00

     total cpu time spent up to now is     1105.2 secs

     total energy              =    -149.45927818 Ry
     Harris-Foulkes estimate   =    -149.45928009 Ry
     estimated scf accuracy    <       0.00000670 Ry

     iteration #  3     ecut=    80.00 Ry     beta= 0.30
     Davidson diagonalization with overlap
     ethr =  1.86E-08,  avg # of iterations =  2.6

     negative rho (up, down):  4.633E-06 0.000E+00

     total cpu time spent up to now is     1135.0 secs

     total energy              =    -149.45927916 Ry
     Harris-Foulkes estimate   =    -149.45927925 Ry
     estimated scf accuracy    <       0.00000044 Ry

     iteration #  4     ecut=    80.00 Ry     beta= 0.30
     Davidson diagonalization with overlap
     ethr =  1.21E-09,  avg # of iterations =  2.6

     negative rho (up, down):  4.357E-06 0.000E+00

     total cpu time spent up to now is     1166.9 secs

     total energy              =    -149.45927923 Ry
     Harris-Foulkes estimate   =    -149.45927924 Ry
     estimated scf accuracy    <       0.00000007 Ry

     iteration #  5     ecut=    80.00 Ry     beta= 0.30
     Davidson diagonalization with overlap
     ethr =  1.95E-10,  avg # of iterations =  2.8

     negative rho (up, down):  4.859E-06 0.000E+00

     total cpu time spent up to now is     1197.0 secs

     total energy              =    -149.45927921 Ry
     Harris-Foulkes estimate   =    -149.45927924 Ry
     estimated scf accuracy    <       0.00000024 Ry

     iteration #  6     ecut=    80.00 Ry     beta= 0.30
     Davidson diagonalization with overlap
     ethr =  1.95E-10,  avg # of iterations =  2.8

     negative rho (up, down):  5.964E-06 0.000E+00

     total cpu time spent up to now is     1226.6 secs

     End of self-consistent calculation

          k = 0.0000 0.0000 0.0000 ( 37267 PWs)   bands (ev):

    -9.9647  -9.2854  -8.1799  -6.7131  -4.8906  -2.7000  -1.6967  -1.6967
    -1.1682  -1.0706  -1.0706  -0.3284  -0.3283  -0.0463  -0.0463   0.3130
     0.3131   1.3209   1.3209   1.4650   1.4651   1.6745

          k = 0.0000 0.0625 0.0000 ( 37205 PWs)   bands (ev):

    -9.9290  -9.2498  -8.1446  -6.6780  -4.8559  -2.6655  -2.2654  -1.6639
    -1.6279  -1.1351  -1.0378  -0.5936  -0.2933  -0.0135   0.2802   0.4004
     0.7786   0.9170   1.3537   1.5571   1.7072   2.0214

          k = 0.0000 0.1250 0.0000 ( 37193 PWs)   bands (ev):

    -9.8218  -9.1430  -8.0385  -6.5729  -4.7518  -3.1672  -2.5621  -2.5203
    -1.5654  -1.4688  -1.0357  -0.9394  -0.2347  -0.0164   0.0849   0.4761
     1.3871   1.4519   1.5230   1.6995   1.8047   2.1095

          k = 0.0000 0.1875 0.0000 ( 37198 PWs)   bands (ev):

    -9.6433  -8.9652  -7.8619  -6.3977  -4.5784  -4.0644  -3.4114  -2.3901
    -2.3489  -1.4014  -0.9456  -0.8701  -0.7753  -0.0032   0.2489   0.5613
     0.9387   1.6157   1.7321   1.9651   2.5687   2.9445

          k = 0.0000 0.2500 0.0000 ( 37192 PWs)   bands (ev):

    -9.3938  -8.7167  -7.6150  -6.1529  -4.9142  -4.3361  -4.2564  -3.1860
    -2.1499  -1.7679  -1.1716  -0.6385  -0.5456  -0.0247   0.2230   0.4785
     0.9507   1.8449   1.9162   2.1826   2.2457   3.0330

          k = 0.0000 0.3125 0.0000 ( 37174 PWs)   bands (ev):

    -9.0737  -8.3979  -7.2981  -5.8388  -5.7056  -5.0440  -4.0252  -3.9673
    -2.5396  -1.8422  -0.8762  -0.7709  -0.3411  -0.2502   0.4952   0.7737
     1.2402   1.4378   2.1396   2.2774   2.3214   2.4374

          k = 0.0000 0.3750 0.0000 ( 37172 PWs)   bands (ev):

    -8.6833  -8.0091  -6.9119  -6.4343  -5.7694  -5.4559  -4.6873  -3.6464
    -3.2520  -1.4703  -1.4680  -0.5151   0.0217   0.1109   0.5473   1.0781
     1.1346   1.5873   1.6020   2.1138   2.2125   2.4997

          k = 0.0000 0.4375 0.0000 ( 37222 PWs)   bands (ev):

    -8.2233  -7.5510  -7.0978  -6.4568  -6.4301  -5.3434  -5.0048  -3.9016
    -3.2003  -2.1106  -1.0291  -0.0882   0.0231   0.4492   0.5377   0.9630
     1.4038   1.4890   1.5611   1.5885   2.0492   2.3504

          k = 0.0000-0.5000 0.0000 ( 37186 PWs)   bands (ev):

    -7.6945  -7.6945  -7.0243  -7.0243  -5.9336  -5.9336  -4.4864  -4.4864
    -2.6879  -2.6879  -0.5288  -0.5288   0.4045   0.4045   0.9400   0.9400
     1.0302   1.0302   1.8662   1.8662   2.0532   2.0532

          k = 0.0625 0.0625 0.0000 ( 37181 PWs)   bands (ev):

    -9.8933  -9.2142  -8.1092  -6.6430  -4.8212  -2.6311  -2.2322  -2.2322
    -1.5952  -1.5952  -1.1020  -0.5527  -0.5527   0.3300   0.3301   0.8354
     0.8354   0.9847   0.9847   1.7395   2.0951   2.0952

          k = 0.0625 0.1250 0.0000 ( 37200 PWs)   bands (ev):

    -9.7861  -9.1074  -8.0032  -6.5378  -4.7171  -3.1334  -2.5277  -2.4874
    -2.1313  -1.5287  -1.3955  -1.0026  -0.4562  -0.0358   0.4556   0.9223
     1.0708   1.4350   1.7543   1.8355   1.9464   2.2920

          k = 0.0625 0.1875 0.0000 ( 37177 PWs)   bands (ev):

    -9.6077  -8.9297  -7.8266  -6.3627  -4.5437  -4.0303  -3.3775  -2.3558
    -2.3169  -1.9657  -1.3218  -0.9078  -0.8371  -0.2768   0.6126   0.7965
     1.1127   1.3341   1.9900   2.3061   2.7304   3.1065

          k = 0.0625 0.2500 0.0000 ( 37203 PWs)   bands (ev):

    -9.3582  -8.6813  -7.5797  -6.1180  -4.8798  -4.3015  -4.2222  -3.1524
    -2.1158  -1.7773  -1.6858  -1.0924  -0.6056  -0.0479   0.0276   0.8335
     1.3342   1.5369   2.1555   2.1608   2.6006   2.6055

          k = 0.0625 0.3125 0.0000 ( 37175 PWs)   bands (ev):

    -9.0381  -8.3625  -7.2630  -5.8040  -5.6710  -5.0095  -3.9908  -3.9331
    -2.5065  -1.8084  -1.4291  -0.8385  -0.6823  -0.3084   0.2483   1.0495
     1.5414   1.6250   1.7278   1.8319   2.3818   2.5505

          k = 0.0625 0.3750 0.0000 ( 37193 PWs)   bands (ev):

    -8.6479  -7.9738  -6.8768  -6.3994  -5.7347  -5.4212  -4.6529  -3.6121
    -3.2181  -1.4390  -1.4350  -1.0659  -0.4176   0.0540   0.5770   0.7232
     1.0579   1.5868   1.6947   1.9316   2.1593   2.2581

          k = 0.0625 0.4375 0.0000 ( 37206 PWs)   bands (ev):

    -8.1880  -7.5158  -7.0628  -6.4218  -6.3952  -5.3087  -4.9702  -3.8674
    -3.1662  -2.0773  -0.9983  -0.6429   0.0110   0.0869   0.4384   0.4801
     1.0507   1.0704   1.5177   1.9809   2.1004   2.4421

          k = 0.0625-0.5000 0.0000 ( 37210 PWs)   bands (ev):

    -7.6593  -7.6593  -6.9893  -6.9893  -5.8988  -5.8988  -4.4519  -4.4519
    -2.6541  -2.6541  -0.5161  -0.5161  -0.1023  -0.1023   0.5058   0.5058
     0.9732   0.9732   1.5431   1.5431   2.4386   2.4386

          k = 0.1250 0.1250 0.0000 ( 37179 PWs)   bands (ev):

    -9.6790  -9.0008  -7.8972  -6.4328  -4.6131  -3.0322  -3.0322  -2.4246
    -2.3873  -2.3873  -1.3255  -1.3254  -0.9034   0.0704   0.0704   1.5215
     1.5215   1.7743   1.7743   1.9237   2.2154   2.2154

          k = 0.1250 0.1875 0.0000 ( 37156 PWs)   bands (ev):

    -9.5007  -8.8232  -7.7207  -6.2578  -4.4399  -3.9278  -3.2767  -2.8620
    -2.2873  -2.2531  -2.1367  -1.1673  -0.7877  -0.7381   0.2317   0.9564
     1.6779   1.9590   2.0218   2.3594   2.5753   2.7180

          k = 0.1250 0.2500 0.0000 ( 37165 PWs)   bands (ev):

    -9.2515  -8.5749  -7.4741  -6.0133  -4.7764  -4.1979  -4.1196  -3.0527
    -2.6276  -2.0137  -1.9729  -1.6306  -0.9155  -0.5070   0.1161   0.4966
     1.6037   1.8332   2.1195   2.2770   2.4084   2.4954

          k = 0.1250 0.3125 0.0000 ( 37207 PWs)   bands (ev):

    -8.9316  -8.2564  -7.1576  -5.6995  -5.5669  -4.9061  -3.8874  -3.8309
    -2.4302  -2.2936  -1.7076  -1.6754  -0.6247  -0.6185  -0.2105   0.7773
     0.8837   1.4575   1.5281   2.2774   2.5162   2.5687

          k = 0.1250 0.3750 0.0000 ( 37189 PWs)   bands (ev):

    -8.5416  -7.8680  -6.7717  -6.2948  -5.6306  -5.3170  -4.5497  -3.5092
    -3.1169  -1.9491  -1.4009  -1.3374  -1.2304  -0.2547   0.1497   0.2012
     0.8169   0.8382   1.1310   1.8735   2.2677   2.6109

          k = 0.1250 0.4375 0.0000 ( 37163 PWs)   bands (ev):

    -8.0821  -7.4103  -6.9577  -6.3170  -6.2905  -5.2049  -4.8664  -3.7648
    -3.0638  -1.9786  -1.5166  -0.9202  -0.8575  -0.4056   0.1045   0.2031
     0.2758   0.5801   1.2506   1.4548   1.7615   2.6468

          k = 0.1250-0.5000 0.0000 ( 37170 PWs)   bands (ev):

    -7.5538  -7.5538  -6.8842  -6.8842  -5.7944  -5.7944  -4.3486  -4.3486
    -2.5527  -2.5527  -1.0294  -1.0294  -0.3623  -0.3623  -0.3594  -0.3594
     0.6913   0.6913   1.0583   1.0583   2.0991   2.0991

          k = 0.1875 0.1875 0.0000 ( 37147 PWs)   bands (ev):

    -9.3226  -8.6458  -7.5445  -6.0831  -4.2670  -3.7575  -3.7575  -3.1077
    -3.1077  -2.0823  -2.0357  -2.0357  -0.6296  -0.6296  -0.5732   1.1182
     1.1182   1.5518   2.2299   2.3529   2.8265   2.8266

          k = 0.1875 0.2500 0.0000 ( 37175 PWs)   bands (ev):

    -9.0737  -8.3979  -7.2982  -5.8389  -4.6045  -4.0254  -3.9496  -3.5176
    -2.9499  -2.7909  -1.8444  -1.8094  -1.4465  -0.4043  -0.3430   0.3178
     0.7755   1.3319   1.4225   2.4049   2.4401   2.6206

          k = 0.1875 0.3125 0.0000 ( 37186 PWs)   bands (ev):

    -8.7542  -8.0797  -6.9820  -5.5255  -5.3938  -4.7339  -3.7155  -3.6622
    -3.2135  -2.5536  -2.2320  -1.5417  -1.4910  -0.4788  -0.0662  -0.0490
     0.0298   0.6691   1.4657   1.7068   1.8953   2.8492

          k = 0.1875 0.3750 0.0000 ( 37171 PWs)   bands (ev):

    -8.3647  -7.6917  -6.5967  -6.1207  -5.4573  -5.1436  -4.3781  -3.3379
    -2.9683  -2.8126  -2.1867  -1.1907  -1.1593  -1.1247  -0.6439  -0.0337
     0.2799   0.3167   0.9656   1.0188   2.0797   2.4075

          k = 0.1875 0.4375 0.0000 ( 37190 PWs)   bands (ev):

    -7.9057  -7.2347  -6.7827  -6.1426  -6.1163  -5.0320  -4.6937  -3.5946
    -2.8938  -2.3949  -1.8602  -1.6848  -1.3388  -0.6952  -0.6925  -0.6634
     0.3643   0.3928   0.6993   0.7281   1.8084   1.8174

          k = 0.1875-0.5000 0.0000 ( 37202 PWs)   bands (ev):

    -7.3781  -7.3781  -6.7092  -6.7092  -5.6207  -5.6207  -4.1768  -4.1768
    -2.3854  -2.3854  -1.8931  -1.8931  -1.2305  -1.2305  -0.2855  -0.2855
    -0.0982  -0.0982   1.0694   1.0694   1.3947   1.3947

          k = 0.2500 0.2500 0.0000 ( 37217 PWs)   bands (ev):

    -8.8251  -8.1503  -7.0522  -5.5951  -4.3644  -4.3644  -3.7843  -3.7111
    -3.7111  -2.6330  -2.6330  -1.6100  -1.2214  -1.2213  -0.1153  -0.0299
     0.5384   0.5384   0.6101   1.6485   2.6563   2.6563

          k = 0.2500 0.3125 0.0000 ( 37224 PWs)   bands (ev):

    -8.5062  -7.8327  -6.7367  -5.2824  -5.1518  -4.4942  -4.0545  -3.4874
    -3.4753  -3.3273  -2.3363  -1.9836  -1.3263  -0.9291  -0.7683  -0.2069
    -0.1571   0.1847   0.8158   0.8975   1.9646   2.3024

          k = 0.2500 0.3750 0.0000 ( 37195 PWs)   bands (ev):

    -8.1173  -7.4454  -6.3520  -5.8773  -5.2152  -4.9012  -4.1398  -3.6805
    -3.0990  -3.0177  -2.7041  -1.9523  -1.5302  -0.9479  -0.8975  -0.8530
    -0.5187   0.2061   0.5295   1.0094   1.4590   1.6254

          k = 0.2500 0.4375 0.0000 ( 37231 PWs)   bands (ev):

    -7.6592  -6.9891  -6.5381  -5.8988  -5.8729  -4.7907  -4.4523  -3.3751
    -3.2115  -2.6575  -2.5810  -2.1519  -1.5642  -1.5165  -1.4881  -0.5515
    -0.3550  -0.1061   0.5710   0.8082   1.1425   1.7034

          k = 0.2500-0.5000 0.0000 ( 37208 PWs)   bands (ev):

    -7.1324  -7.1324  -6.4646  -6.4646  -5.3779  -5.3779  -3.9372  -3.9372
    -2.7227  -2.7227  -2.1915  -2.1915  -2.0183  -2.0183  -1.0160  -1.0160
     0.0324   0.0324   0.3801   0.3801   1.4910   1.4910

[...]
     ethr =  8.93E-10,  avg # of iterations =  3.1

     negative rho (up, down):  4.592E-06 0.000E+00

     total cpu time spent up to now is     1724.3 secs

     total energy              =    -149.45933901 Ry
     Harris-Foulkes estimate   =    -149.45933945 Ry
     estimated scf accuracy    <       0.00000388 Ry

     iteration #  6     ecut=    80.00 Ry     beta= 0.30
     Davidson diagonalization with overlap
     ethr =  8.93E-10,  avg # of iterations =  3.1

     negative rho (up, down):  4.545E-06 0.000E+00

     total cpu time spent up to now is     1758.5 secs

     total energy              =    -149.45933923 Ry
     Harris-Foulkes estimate   =    -149.45933923 Ry
     estimated scf accuracy    <       0.00000005 Ry

     iteration #  7     ecut=    80.00 Ry     beta= 0.30
     Davidson diagonalization with overlap
     ethr =  1.28E-10,  avg # of iterations =  1.0

     negative rho (up, down):  4.607E-06 0.000E+00

     total cpu time spent up to now is     1783.6 secs

     total energy              =    -149.45933923 Ry
     Harris-Foulkes estimate   =    -149.45933923 Ry
     estimated scf accuracy    <       0.00000003 Ry

     iteration #  8     ecut=    80.00 Ry     beta= 0.30
     Davidson diagonalization with overlap
     ethr =  9.34E-11,  avg # of iterations =  1.0

     negative rho (up, down):  4.971E-06 0.000E+00

     total cpu time spent up to now is     1808.0 secs

     total energy              =    -149.45933923 Ry
     Harris-Foulkes estimate   =    -149.45933923 Ry
     estimated scf accuracy    <       0.00000002 Ry

     iteration #  9     ecut=    80.00 Ry     beta= 0.30
     Davidson diagonalization with overlap
     ethr =  4.99E-11,  avg # of iterations =  1.0

     negative rho (up, down):  5.192E-06 0.000E+00

     total cpu time spent up to now is     1833.0 secs

     total energy              =    -149.45933923 Ry
     Harris-Foulkes estimate   =    -149.45933923 Ry
     estimated scf accuracy    <       0.00000001 Ry

     iteration # 10     ecut=    80.00 Ry     beta= 0.30
     Davidson diagonalization with overlap
     ethr =  3.56E-11,  avg # of iterations =  1.0

     negative rho (up, down):  5.843E-06 0.000E+00

     total cpu time spent up to now is     1856.1 secs

     End of self-consistent calculation

          k = 0.0000 0.0000 0.0000 ( 37267 PWs)   bands (ev):

    -9.9605  -9.2689  -8.1604  -6.7109  -4.8954  -2.7054  -1.6925  -1.6925
    -1.1739  -1.0532  -1.0532  -0.3237  -0.3237  -0.0241  -0.0241   0.3275
     0.3275   1.3236   1.3236   1.4852   1.4853   1.6668

          k = 0.0000 0.0625 0.0000 ( 37205 PWs)   bands (ev):

    -9.9247  -9.2333  -8.1250  -6.6758  -4.8606  -2.6709  -2.2612  -1.6597
    -1.6108  -1.1408  -1.0203  -0.5726  -0.2893   0.0087   0.2893   0.4112
     0.7857   0.9285   1.3563   1.5762   1.6995   2.0421

          k = 0.0000 0.1250 0.0000 ( 37193 PWs)   bands (ev):

    -9.8176  -9.1265  -8.0190  -6.5706  -4.7565  -3.1630  -2.5675  -2.5034
    -1.5612  -1.4483  -1.0414  -0.9219  -0.2326  -0.0109   0.1072   0.4926
     1.3905   1.4545   1.5386   1.6937   1.7971   2.1277

          k = 0.0000 0.1875 0.0000 ( 37198 PWs)   bands (ev):

    -9.6391  -8.9488  -7.8423  -6.3955  -4.5831  -4.0602  -3.3946  -2.3954
    -2.3287  -1.3972  -0.9430  -0.8757  -0.7578   0.0015   0.2712   0.5730
     0.9379   1.6183   1.7485   1.9576   2.5715   2.9417

          k = 0.0000 0.2500 0.0000 ( 37192 PWs)   bands (ev):

    -9.3896  -8.7003  -7.5954  -6.1507  -4.9100  -4.3408  -4.2398  -3.1660
    -2.1552  -1.7653  -1.1674  -0.6441  -0.5281  -0.0280   0.2275   0.5008
     0.9651   1.8475   1.9257   2.1754   2.2495   3.0372

          k = 0.0000 0.3125 0.0000 ( 37174 PWs)   bands (ev):

    -9.0694  -8.3814  -7.2786  -5.8365  -5.7014  -5.0274  -4.0299  -3.9473
    -2.5370  -1.8474  -0.8720  -0.7751  -0.3466  -0.2327   0.4993   0.7961
     1.2555   1.4331   2.1421   2.2816   2.3398   2.4312

          k = 0.0000 0.3750 0.0000 ( 37172 PWs)   bands (ev):

    -8.6791  -7.9926  -6.8923  -6.4301  -5.7529  -5.4536  -4.6675  -3.6510
    -3.2495  -1.4747  -1.4732  -0.5109   0.0163   0.1285   0.5454   1.0791
     1.1570   1.5915   1.6171   2.1101   2.2303   2.5022

          k = 0.0000 0.4375 0.0000 ( 37222 PWs)   bands (ev):

    -8.2191  -7.5345  -7.0936  -6.4371  -6.4135  -5.3236  -5.0025  -3.8992
    -3.2049  -2.1151  -1.0342  -0.0840   0.0184   0.4439   0.5553   0.9672
     1.4075   1.4840   1.5836   1.6062   2.0654   2.3534

          k = 0.0000-0.5000 0.0000 ( 37186 PWs)   bands (ev):

    -7.6903  -7.6903  -7.0078  -7.0078  -5.9139  -5.9139  -4.4840  -4.4840
    -2.6925  -2.6925  -0.5338  -0.5338   0.4087   0.4087   0.9348   0.9348
     1.0479   1.0479   1.8700   1.8700   2.0757   2.0757

          k = 0.0625 0.0625 0.0000 ( 37181 PWs)   bands (ev):

    -9.8890  -9.1977  -8.0897  -6.6408  -4.8259  -2.6364  -2.2280  -2.2280
    -1.5782  -1.5782  -1.1076  -0.5315  -0.5314   0.3340   0.3340   0.8402
     0.8402   0.9990   0.9990   1.7318   2.1149   2.1150

          k = 0.0625 0.1250 0.0000 ( 37200 PWs)   bands (ev):

    -9.7819  -9.0910  -7.9836  -6.5356  -4.7218  -3.1292  -2.5331  -2.4705
    -2.1272  -1.5114  -1.3751  -1.0083  -0.4348  -0.0336   0.4605   0.9250
     1.0869   1.4386   1.7495   1.8279   1.9615   2.3113

          k = 0.0625 0.1875 0.0000 ( 37177 PWs)   bands (ev):

    -9.6034  -8.9132  -7.8070  -6.3605  -4.5485  -4.0260  -3.3608  -2.3611
    -2.2967  -1.9616  -1.3045  -0.9046  -0.8427  -0.2560   0.6170   0.7946
     1.1155   1.3473   1.9827   2.3229   2.6230   2.7271

          k = 0.0625 0.2500 0.0000 ( 37203 PWs)   bands (ev):

    -9.3540  -8.6648  -7.5602  -6.1157  -4.8755  -4.3062  -4.2055  -3.1323
    -2.1211  -1.7749  -1.6812  -1.0752  -0.6112  -0.0268   0.0233   0.8378
     1.3370   1.5526   2.1506   2.1572   2.6024   2.6236

          k = 0.0625 0.3125 0.0000 ( 37175 PWs)   bands (ev):

    -9.0339  -8.3460  -7.2434  -5.8017  -5.6667  -4.9929  -3.9954  -3.9132
    -2.5040  -1.8137  -1.4248  -0.8278  -0.6802  -0.3139   0.2693   1.0521
     1.5386   1.6277   1.7316   1.8479   2.3993   2.5441

          k = 0.0625 0.3750 0.0000 ( 37193 PWs)   bands (ev):

    -8.6436  -7.9573  -6.8572  -6.3952  -5.7181  -5.4188  -4.6330  -3.6167
    -3.2156  -1.4432  -1.4402  -1.0616  -0.4007   0.0485   0.5894   0.7281
     1.0620   1.5903   1.7122   1.9324   2.1666   2.2645

          k = 0.0625 0.4375 0.0000 ( 37206 PWs)   bands (ev):

    -8.1838  -7.4993  -7.0585  -6.4022  -6.3786  -5.2890  -4.9678  -3.8649
    -3.1707  -2.0817  -1.0033  -0.6388   0.0281   0.0822   0.4425   0.4748
     1.0723   1.0878   1.5129   1.9849   2.1220   2.4448

          k = 0.0625-0.5000 0.0000 ( 37210 PWs)   bands (ev):

    -7.6551  -7.6551  -6.9728  -6.9728  -5.8791  -5.8791  -4.4495  -4.4495
    -2.6586  -2.6586  -0.5204  -0.5204  -0.0988  -0.0988   0.5229   0.5229
     0.9682   0.9682   1.5647   1.5647   2.4424   2.4424

          k = 0.1250 0.1250 0.0000 ( 37179 PWs)   bands (ev):

    -9.6748  -8.9843  -7.8776  -6.4305  -4.6178  -3.0280  -3.0280  -2.4299
    -2.3706  -2.3706  -1.3046  -1.3046  -0.9090   0.0728   0.0729   1.5264
     1.5264   1.7720   1.7720   1.9163   2.2282   2.2282

          k = 0.1250 0.1875 0.0000 ( 37156 PWs)   bands (ev):

    -9.4965  -8.8067  -7.7012  -6.2556  -4.4446  -3.9236  -3.2598  -2.8580
    -2.2698  -2.2584  -2.1170  -1.1464  -0.7853  -0.7437   0.2338   0.9527
     1.6824   1.9546   2.0167   2.3756   2.5770   2.7215

          k = 0.1250 0.2500 0.0000 ( 37165 PWs)   bands (ev):

    -9.2472  -8.5584  -7.4545  -6.0110  -4.7722  -4.2026  -4.1029  -3.0327
    -2.6235  -2.0190  -1.9558  -1.6273  -0.8954  -0.5125   0.1112   0.4998
     1.6072   1.8361   2.1166   2.2944   2.4019   2.4904

          k = 0.1250 0.3125 0.0000 ( 37207 PWs)   bands (ev):

    -8.9273  -8.2399  -7.1380  -5.6972  -5.5627  -4.8894  -3.8921  -3.8110
    -2.4282  -2.2886  -1.7128  -1.6584  -0.6294  -0.5981  -0.2160   0.7802
     0.8878   1.4541   1.5454   2.2805   2.5301   2.5635

          k = 0.1250 0.3750 0.0000 ( 37189 PWs)   bands (ev):

    -8.5374  -7.8515  -6.7521  -6.2906  -5.6140  -5.3147  -4.5298  -3.5138
    -3.1144  -1.9447  -1.3961  -1.3425  -1.2228  -0.2345   0.1443   0.2053
     0.8129   0.8554   1.1338   1.8947   2.2633   2.6147

          k = 0.1250 0.4375 0.0000 ( 37163 PWs)   bands (ev):

    -8.0778  -7.3938  -6.9534  -6.2974  -6.2740  -5.1851  -4.8640  -3.7623
    -3.0684  -1.9828  -1.5123  -0.9246  -0.8408  -0.4022   0.1104   0.2197
     0.2859   0.5754   1.2718   1.4547   1.7598   2.6496

          k = 0.1250-0.5000 0.0000 ( 37170 PWs)   bands (ev):

    -7.5496  -7.5496  -6.8677  -6.8677  -5.7747  -5.7747  -4.3462  -4.3462
    -2.5572  -2.5572  -1.0254  -1.0254  -0.3672  -0.3672  -0.3426  -0.3426
     0.7124   0.7124   1.0535   1.0535   2.1018   2.1018

          k = 0.1875 0.1875 0.0000 ( 37147 PWs)   bands (ev):

    -9.3184  -8.6293  -7.5250  -6.0808  -4.2717  -3.7532  -3.7532  -3.0912
    -3.0911  -2.0876  -2.0151  -2.0151  -0.6273  -0.6272  -0.5788   1.1140
     1.1141   1.5552   2.2473   2.3463   2.8295   2.8295

          k = 0.1875 0.2500 0.0000 ( 37175 PWs)   bands (ev):

    -9.0694  -8.3814  -7.2786  -5.8366  -4.6002  -4.0300  -3.9329  -3.5136
    -2.9323  -2.7715  -1.8496  -1.7887  -1.4442  -0.4024  -0.3485   0.3141
     0.7796   1.3279   1.4398   2.4177   2.4358   2.6216

          k = 0.1875 0.3125 0.0000 ( 37186 PWs)   bands (ev):

    -8.7499  -8.0632  -6.9624  -5.5232  -5.3896  -4.7173  -3.7201  -3.6423
    -3.2095  -2.5366  -2.2288  -1.5469  -1.4711  -0.4840  -0.0628  -0.0544
     0.0339   0.6862   1.4628   1.7278   1.8892   2.8420

          k = 0.1875 0.3750 0.0000 ( 37171 PWs)   bands (ev):

    -8.3604  -7.6752  -6.5770  -6.1165  -5.4407  -5.1412  -4.3583  -3.3425
    -2.9664  -2.8076  -2.1697  -1.1952  -1.1641  -1.1045  -0.6405  -0.0173
     0.2829   0.3120   0.9617   1.0398   2.0743   2.4036

          k = 0.1875 0.4375 0.0000 ( 37190 PWs)   bands (ev):

    -7.9015  -7.2182  -6.7784  -6.1229  -6.0998  -5.0123  -4.6913  -3.5922
    -2.8983  -2.3906  -1.8571  -1.6757  -1.3348  -0.7002  -0.6726  -0.6466
     0.3602   0.4137   0.7022   0.7232   1.8111   1.8129

          k = 0.1875-0.5000 0.0000 ( 37202 PWs)   bands (ev):

    -7.3738  -7.3738  -6.6927  -6.6927  -5.6010  -5.6010  -4.1744  -4.1744
    -2.3897  -2.3897  -1.8888  -1.8888  -1.2139  -1.2139  -0.2818  -0.2818
    -0.0862  -0.0862   1.0689   1.0689   1.3933   1.3933

          k = 0.2500 0.2500 0.0000 ( 37217 PWs)   bands (ev):

    -8.8209  -8.1338  -7.0326  -5.5928  -4.3601  -4.3601  -3.7890  -3.6946
    -3.6946  -2.6126  -2.6125  -1.6151  -1.2191  -1.2190  -0.1207  -0.0258
     0.5343   0.5344   0.6272   1.6695   2.6526   2.6526

          k = 0.2500 0.3125 0.0000 ( 37224 PWs)   bands (ev):

    -8.5019  -7.8162  -6.7171  -5.2800  -5.1476  -4.4775  -4.0505  -3.4799
    -3.4698  -3.3081  -2.3157  -1.9814  -1.3308  -0.9272  -0.7648  -0.2105
    -0.1408   0.1801   0.8120   0.9185   1.9598   2.3053

          k = 0.2500 0.3750 0.0000 ( 37195 PWs)   bands (ev):

    -8.1131  -7.4289  -6.3323  -5.8731  -5.1986  -4.8988  -4.1200  -3.6765
    -3.1035  -3.0008  -2.7010  -1.9326  -1.5262  -0.9531  -0.9025  -0.8363
    -0.5152   0.2269   0.5246   1.0065   1.4529   1.6281

          k = 0.2500 0.4375 0.0000 ( 37231 PWs)   bands (ev):

    -7.6549  -6.9726  -6.5338  -5.8791  -5.8563  -4.7709  -4.4499  -3.3732
    -3.2066  -2.6619  -2.5641  -2.1477  -1.5691  -1.4965  -1.4716  -0.5487
    -0.3422  -0.1030   0.5670   0.8075   1.1412   1.6982

          k = 0.2500-0.5000 0.0000 ( 37208 PWs)   bands (ev):

    -7.1282  -7.1282  -6.4481  -6.4481  -5.3582  -5.3582  -3.9348  -3.9348
    -2.7184  -2.7184  -2.1894  -2.1894  -2.0083  -2.0083  -0.9962  -0.9962
     0.0283   0.0283   0.3829   0.3829   1.4865   1.4865

          k = 0.3125 0.3125 0.0000 ( 37223 PWs)   bands (ev):

    -8.1837  -7.4992  -6.4022  -4.9681  -4.8374  -4.8374  -4.1694  -4.1694
    -3.1720  -3.0835  -3.0835  -1.6863  -1.6863  -1.5906  -0.9703  -0.9003
     0.0749   0.0750   0.1637   0.4584   1.5662   2.2114

          k = 0.3125 0.3750 0.0000 ( 37249 PWs)   bands (ev):

    -7.7957  -7.1128  -6.0184  -5.5608  -4.8888  -4.5880  -4.4577  -3.8757
    -3.7156  -2.7983  -2.7159  -2.3882  -2.2786  -1.6022  -1.3266  -0.6832
    -0.6084  -0.4717   0.4187   0.6761   1.0137   1.5743

          k = 0.3125 0.4375 0.0000 ( 37234 PWs)   bands (ev):

    -7.3385  -6.6576  -6.2200  -5.5663  -5.5440  -4.4628  -4.1410  -4.0138
    -3.3364  -3.0402  -2.9174  -2.3895  -2.2667  -2.2104  -1.2906  -1.1931
    -0.8432  -0.1725   0.1886   0.6758   1.1317   1.2897

          k = 0.3125-0.5000 0.0000 ( 37220 PWs)   bands (ev):

    -6.8130  -6.8130  -6.1343  -6.1343  -5.0470  -5.0470  -3.6456  -3.6456
    -3.4756  -3.4756  -2.8302  -2.8302  -1.8405  -1.8405  -1.7614  -1.7614
    -0.3642  -0.3642   0.3005   0.3005   1.4425   1.4425

          k = 0.3750 0.3750 0.0000 ( 37286 PWs)   bands (ev):

    -7.4087  -6.7275  -5.6358  -5.1804  -5.1804  -4.5107  -4.5107  -4.2098
    -3.4225  -3.4224  -2.9840  -2.4563  -2.2781  -2.0228  -2.0228  -1.2590
    -0.2564  -0.2563  -0.2397   0.1235   1.2240   1.8881

          k = 0.3750 0.4375 0.0000 ( 37232 PWs)   bands (ev):

    -6.9528  -6.2735  -5.8374  -5.1853  -5.1641  -4.7308  -4.1474  -3.9892
    -3.7820  -3.6108  -2.9845  -2.9640  -2.6609  -1.9766  -1.8947  -1.5948
    -0.8754  -0.4956   0.1544   0.1666   1.3132   1.3136

          k = 0.3750-0.5000 0.0000 ( 37250 PWs)   bands (ev):

    -6.4287  -6.4287  -5.7518  -5.7518  -4.6692  -4.6692  -4.2174  -4.2174
    -3.5391  -3.5391  -3.2445  -3.2445  -2.4685  -2.4685  -1.4939  -1.4939
    -1.0415  -1.0415   0.4761   0.4761   0.9367   0.9367

          k = 0.4375 0.4375 0.0000 ( 37288 PWs)   bands (ev):

    -6.4984  -5.8212  -5.3870  -5.3870  -4.7380  -4.7162  -4.7162  -4.2854
    -3.6267  -3.6267  -3.6068  -3.3127  -2.5360  -2.2257  -2.2256  -1.5618
    -1.1078  -0.4562  -0.4561   0.4094   0.8714   1.6922

          k = 0.4375-0.5000 0.0000 ( 37302 PWs)   bands (ev):

    -5.9760  -5.9760  -5.3021  -5.3021  -4.8678  -4.8678  -4.2835  -4.2835
    -4.1265  -4.1265  -3.1194  -3.1194  -2.7976  -2.7976  -1.7295  -1.7295
    -1.0093  -1.0093   0.0217   0.0217   1.1818   1.1818

          k =-0.5000-0.5000 0.0000 ( 37264 PWs)   bands (ev):

    -5.4560  -5.4560  -5.4560  -5.4560  -4.7849  -4.7849  -4.7849  -4.7849
    -3.6950  -3.6950  -3.6949  -3.6949  -2.2934  -2.2934  -2.2934  -2.2934
    -0.5229  -0.5229  -0.5229  -0.5229   1.6267   1.6267

     the Fermi energy is     1.0575 ev

!    total energy              =    -149.45933923 Ry
     Harris-Foulkes estimate   =    -149.45933923 Ry
     estimated scf accuracy    <          2.8E-09 Ry

     The total energy is the sum of the following terms:

     one-electron contribution =    -778.28988868 Ry
     hartree contribution      =     397.94377906 Ry
     xc contribution           =    -119.98610147 Ry
     ewald contribution        =     350.87335125 Ry
     smearing contrib. (-TS)   =      -0.00047939 Ry

     convergence has been achieved in  10 iterations

     negative rho (up, down):  5.843E-06 0.000E+00

     Forces acting on atoms (cartesian axes, Ry/au):

     atom    1 type  1   force =     0.00000000    0.00000000   -0.00045009
     atom    2 type  1   force =     0.00000000    0.00000000   -0.00045010
     atom    3 type  1   force =     0.00000000    0.00000000   -0.00076589
     atom    4 type  1   force =     0.00000000    0.00000000   -0.00076589
     atom    5 type  1   force =     0.00000000    0.00000000    0.00043113
     atom    6 type  1   force =     0.00000000    0.00000000    0.00043115
     atom    7 type  1   force =     0.00000000    0.00000000   -0.00042962
     atom    8 type  1   force =     0.00000000    0.00000000   -0.00042962
     atom    9 type  1   force =     0.00000000    0.00000000    0.00076320
     atom   10 type  1   force =     0.00000000    0.00000000    0.00076318
     atom   11 type  1   force =     0.00000000    0.00000000    0.00045128
     atom   12 type  1   force =     0.00000000    0.00000000    0.00045128

     Total force =     0.001973     Total SCF correction =     0.000095


     Computing stress (Cartesian axis) and pressure


     negative rho (up, down):  5.843E-06 0.000E+00
          total   stress  (Ry/bohr**3)                   (kbar)     P=   -6.49
  -0.00007117   0.00000000   0.00000000        -10.47      0.00      0.00
   0.00000000  -0.00007117   0.00000000          0.00    -10.47      0.00
   0.00000000   0.00000000   0.00001008          0.00      0.00      1.48


     bfgs converged in   6 scf cycles and   5 bfgs steps
     (criteria: energy <  1.0E-04 Ry, force <  1.0E-03 Ry/Bohr)

     End of BFGS Geometry Optimization

     Final energy   =    -149.4593392261 Ry
Begin final coordinates

ATOMIC_POSITIONS (crystal)
Al       0.000000000   0.000000000  -0.000449533
Al       0.500000000   0.500000000  -0.000449536
Al       0.500000000   0.000000000   0.071688279
Al       0.000000000   0.500000000   0.071688279
Al       0.000000000   0.000000000   0.142845656
Al       0.500000000   0.500000000   0.142845668
Al       0.500000000   0.000000000   0.214296966
Al       0.000000000   0.500000000   0.214296966
Al       0.000000000   0.000000000   0.285456695
Al       0.500000000   0.500000000   0.285456692
Al       0.500000000   0.000000000   0.357590506
Al       0.000000000   0.500000000   0.357590506
End final coordinates



     Writing output data file Al_100_3_4.save/
 
     init_run     :     21.89s CPU     22.34s WALL (       1 calls)
     electrons    :   1690.52s CPU   1703.28s WALL (       6 calls)
     update_pot   :      0.87s CPU      0.89s WALL (       5 calls)
     forces       :     29.12s CPU     29.47s WALL (       6 calls)
     stress       :    124.67s CPU    125.28s WALL (       6 calls)

     Called by init_run:
     wfcinit      :     21.38s CPU     21.76s WALL (       1 calls)
     potinit      :      0.11s CPU      0.12s WALL (       1 calls)
     hinit0       :      0.34s CPU      0.35s WALL (       1 calls)

     Called by electrons:
     c_bands      :   1392.73s CPU   1400.12s WALL (      60 calls)
     sum_band     :    220.43s CPU    223.19s WALL (      60 calls)
     v_of_rho     :      5.56s CPU      6.00s WALL (      63 calls)
     newd         :      2.18s CPU      3.17s WALL (      63 calls)
     mix_rho      :     70.18s CPU     71.29s WALL (      60 calls)

     Called by c_bands:
     init_us_2    :     63.99s CPU     64.07s WALL (    5985 calls)
     cegterg      :   1282.72s CPU   1288.83s WALL (    2700 calls)

     Called by sum_band:
     sum_band:bec :      0.06s CPU      0.06s WALL (    2700 calls)
     addusdens    :      2.04s CPU      3.41s WALL (      60 calls)

     Called by *egterg:
     h_psi        :    861.50s CPU    863.39s WALL (    8428 calls)
     s_psi        :     99.66s CPU     99.78s WALL (    8428 calls)
     g_psi        :     26.23s CPU     26.26s WALL (    5683 calls)
     cdiaghg      :      6.80s CPU      7.97s WALL (    8023 calls)

     Called by h_psi:
     h_psi:pot    :    848.32s CPU    849.40s WALL (    8428 calls)
     h_psi:calbec :     78.93s CPU     79.09s WALL (    8428 calls)
     vloc_psi     :    673.39s CPU    674.23s WALL (    8428 calls)
     add_vuspsi   :     95.93s CPU     96.03s WALL (    8428 calls)

     General routines
     calbec       :    126.19s CPU    126.42s WALL (   12478 calls)
     fft          :      1.75s CPU      1.76s WALL (     851 calls)
     ffts         :     27.22s CPU     27.26s WALL (   13147 calls)
     fftw         :    695.60s CPU    696.39s WALL (  336914 calls)
 
     Parallel routines
 
     PWSCF        :  31m 7.58s CPU  31m27.21s WALL

 
   This run was terminated on:  22:28:12  30May2020            

=------------------------------------------------------------------------------=
   JOB DONE.
=------------------------------------------------------------------------------=
