
     Program PWSCF v.6.4.1 starts on 28May2020 at  1:48:52 

     This program is part of the open-source Quantum ESPRESSO suite
     for quantum simulation of materials; please cite
         "P. Giannozzi et al., J. Phys.:Condens. Matter 21 395502 (2009);
         "P. Giannozzi et al., J. Phys.:Condens. Matter 29 465901 (2017);
          URL http://www.quantum-espresso.org", 
     in publications or presentations arising from this work. More details at
     http://www.quantum-espresso.org/quote

     Parallel version (MPI & OpenMP), running on       1 processor cores
     Number of MPI processes:                 1
     Threads/MPI process:                     1

     MPI processes distributed on     1 nodes
     Reading input from Al_111_bulk_90_7.46.pw.in
Warning: card  &IONS ignored
Warning: card   ION_DYNAMICS = 'BFGS', ignored
Warning: card  / ignored
Warning: card  &CELL ignored
Warning: card  / ignored

     Current dimensions of program PWSCF are:
     Max number of different atomic species (ntypx) = 10
     Max number of k-points (npk) =  40000
     Max angular momentum in pseudopotentials (lmaxx) =  3

     Subspace diagonalization in iterative solution of the eigenvalue problem:
     a serial algorithm will be used

     Found symmetry operation: I + (  0.3333 -0.3333  0.3333)
     This is a supercell, fractional translations are disabled
 
     G-vector sticks info
     --------------------
     sticks:   dense  smooth     PW     G-vecs:    dense   smooth      PW
     Sum         583     583    421                27413    27413   16091
 


     bravais-lattice index     =            4
     lattice parameter (alat)  =       7.4600  a.u.
     unit-cell volume          =     880.6893 (a.u.)^3
     number of atoms/cell      =            3
     number of atomic types    =            1
     number of electrons       =         9.00
     number of Kohn-Sham states=            9
     kinetic-energy cutoff     =      90.0000  Ry
     charge density cutoff     =     150.0000  Ry
     convergence threshold     =      1.0E-08
     mixing beta               =       0.3000
     number of iterations used =            8  local-TF  mixing
     Exchange-correlation      =  SLA  PW   PBE  PBE ( 1  4  3  4 0 0)

     celldm(1)=   7.460000  celldm(2)=   0.000000  celldm(3)=   2.449490
     celldm(4)=   0.000000  celldm(5)=   0.000000  celldm(6)=   0.000000

     crystal axes: (cart. coord. in units of alat)
               a(1) = (   1.000000   0.000000   0.000000 )  
               a(2) = (  -0.500000   0.866025   0.000000 )  
               a(3) = (   0.000000   0.000000   2.449490 )  

     reciprocal axes: (cart. coord. in units 2 pi/alat)
               b(1) = (  1.000000  0.577350  0.000000 )  
               b(2) = (  0.000000  1.154701  0.000000 )  
               b(3) = (  0.000000  0.000000  0.408248 )  


     PseudoPot. # 1 for Al read from file:
     ./Al.pbe-n-van.UPF
     MD5 check sum: b11ded24487aef5bc42d5c7a2e22a7b6
     Pseudo is Ultrasoft + core correction, Zval =  3.0
     Generated by new atomic code, or converted to UPF format
     Using radial grid of  893 points,  2 beta functions with: 
                l(1) =   0
                l(2) =   1
     Q(r) pseudized with  8 coefficients,  rinner =    0.900   0.900   0.900


     atomic species   valence    mass     pseudopotential
        Al             3.00    26.98000     Al( 1.00)

     12 Sym. Ops., with inversion, found



   Cartesian axes

     site n.     atom                  positions (alat units)
         1           Al  tau(   1) = (   0.0000000   0.0000000   0.0000000  )
         2           Al  tau(   2) = (  -0.0000000   0.5773503   0.8164966  )
         3           Al  tau(   3) = (   0.5000000   0.2886751   1.6329932  )

     number of k points=   480  Marzari-Vanderbilt smearing, width (Ry)=  0.0250

     Number of k-points >= 100: set verbosity='high' to print them.

     Dense  grid:    27413 G-vectors     FFT dimensions: (  30,  30,  72)

     Estimated max dynamical RAM per process >     878.03 MB

     Initial potential from superposition of free atoms

     starting charge    8.99260, renormalised to    9.00000
     Starting wfcs are   12 randomized atomic wfcs

     total cpu time spent up to now is       16.7 secs

     Self-consistent Calculation

     iteration #  1     ecut=    90.00 Ry     beta= 0.30
     Davidson diagonalization with overlap
     ethr =  1.00E-02,  avg # of iterations =  2.6

     Threshold (ethr) on eigenvalues was too large:
     Diagonalizing with lowered threshold

     Davidson diagonalization with overlap
     ethr =  1.17E-04,  avg # of iterations =  2.7

     total cpu time spent up to now is       82.4 secs

     total energy              =     -37.04937286 Ry
     Harris-Foulkes estimate   =     -37.05004879 Ry
     estimated scf accuracy    <       0.01072970 Ry

     iteration #  2     ecut=    90.00 Ry     beta= 0.30
     Davidson diagonalization with overlap
     ethr =  1.19E-04,  avg # of iterations =  1.0

     total cpu time spent up to now is      107.2 secs

     total energy              =     -37.04744946 Ry
     Harris-Foulkes estimate   =     -37.04942379 Ry
     estimated scf accuracy    <       0.00716988 Ry

     iteration #  3     ecut=    90.00 Ry     beta= 0.30
     Davidson diagonalization with overlap
     ethr =  7.97E-05,  avg # of iterations =  1.0

     total cpu time spent up to now is      132.1 secs

     total energy              =     -37.04791878 Ry
     Harris-Foulkes estimate   =     -37.04790537 Ry
     estimated scf accuracy    <       0.00001406 Ry

     iteration #  4     ecut=    90.00 Ry     beta= 0.30
     Davidson diagonalization with overlap
     ethr =  1.56E-07,  avg # of iterations =  4.4

     total cpu time spent up to now is      176.6 secs

     total energy              =     -37.04796057 Ry
     Harris-Foulkes estimate   =     -37.04796317 Ry
     estimated scf accuracy    <       0.00001322 Ry

     iteration #  5     ecut=    90.00 Ry     beta= 0.30
     Davidson diagonalization with overlap
     ethr =  1.47E-07,  avg # of iterations =  1.0

     total cpu time spent up to now is      201.4 secs

     total energy              =     -37.04796080 Ry
     Harris-Foulkes estimate   =     -37.04796096 Ry
     estimated scf accuracy    <       0.00000175 Ry

     iteration #  6     ecut=    90.00 Ry     beta= 0.30
     Davidson diagonalization with overlap
     ethr =  1.95E-08,  avg # of iterations =  2.0

     total cpu time spent up to now is      232.6 secs

     total energy              =     -37.04796092 Ry
     Harris-Foulkes estimate   =     -37.04796123 Ry
     estimated scf accuracy    <       0.00000084 Ry

     iteration #  7     ecut=    90.00 Ry     beta= 0.30
     Davidson diagonalization with overlap
     ethr =  9.38E-09,  avg # of iterations =  2.0

     total cpu time spent up to now is      262.5 secs

     total energy              =     -37.04796104 Ry
     Harris-Foulkes estimate   =     -37.04796106 Ry
     estimated scf accuracy    <       0.00000011 Ry

     iteration #  8     ecut=    90.00 Ry     beta= 0.30
     Davidson diagonalization with overlap
     ethr =  1.25E-09,  avg # of iterations =  1.0

     total cpu time spent up to now is      287.3 secs

     total energy              =     -37.04796104 Ry
     Harris-Foulkes estimate   =     -37.04796104 Ry
     estimated scf accuracy    <       0.00000002 Ry

     iteration #  9     ecut=    90.00 Ry     beta= 0.30
     Davidson diagonalization with overlap
     ethr =  1.86E-10,  avg # of iterations =  1.1

     total cpu time spent up to now is      312.2 secs

     End of self-consistent calculation

     Number of k-points >= 100: set verbosity='high' to print the bands.

     the Fermi energy is     0.9436 ev

!    total energy              =     -37.04796104 Ry
     Harris-Foulkes estimate   =     -37.04796104 Ry
     estimated scf accuracy    <          4.1E-10 Ry

     The total energy is the sum of the following terms:

     one-electron contribution =       3.45495194 Ry
     hartree contribution      =       0.32250625 Ry
     xc contribution           =     -29.09152971 Ry
     ewald contribution        =     -11.73373335 Ry
     smearing contrib. (-TS)   =      -0.00015617 Ry

     convergence has been achieved in   9 iterations

     Forces acting on atoms (cartesian axes, Ry/au):

     atom    1 type  1   force =    -0.00000000   -0.00000000    0.00000000
     atom    2 type  1   force =     0.00000000    0.00000000    0.00000001
     atom    3 type  1   force =     0.00000000    0.00000000   -0.00000001

     Total force =     0.000000     Total SCF correction =     0.000000
     SCF correction compared to forces is large: reduce conv_thr to get better values


     Computing stress (Cartesian axis) and pressure

          total   stress  (Ry/bohr**3)                   (kbar)     P=  -70.73
  -0.00048045   0.00000000   0.00000000        -70.68      0.00      0.00
   0.00000000  -0.00048045   0.00000000          0.00    -70.68      0.00
   0.00000000   0.00000000  -0.00048160          0.00      0.00    -70.85


     Writing output data file Al_111_bulk.save/
 
     init_run     :     16.27s CPU     16.67s WALL (       1 calls)
     electrons    :    293.74s CPU    295.48s WALL (       1 calls)
     forces       :      3.90s CPU      3.91s WALL (       1 calls)
     stress       :     22.43s CPU     22.48s WALL (       1 calls)

     Called by init_run:
     wfcinit      :     15.45s CPU     15.81s WALL (       1 calls)
     potinit      :      0.04s CPU      0.04s WALL (       1 calls)
     hinit0       :      0.74s CPU      0.76s WALL (       1 calls)

     Called by electrons:
     c_bands      :    245.48s CPU    246.77s WALL (      10 calls)
     sum_band     :     47.68s CPU     48.09s WALL (      10 calls)
     v_of_rho     :      0.35s CPU      0.36s WALL (      10 calls)
     newd         :      0.08s CPU      0.10s WALL (      10 calls)
     mix_rho      :      0.18s CPU      0.20s WALL (      10 calls)

     Called by c_bands:
     init_us_2    :     24.58s CPU     24.81s WALL (   11040 calls)
     cegterg      :    221.70s CPU    222.52s WALL (    4800 calls)

     Called by sum_band:
     sum_band:bec :      0.03s CPU      0.03s WALL (    4800 calls)
     addusdens    :      0.09s CPU      0.11s WALL (      10 calls)

     Called by *egterg:
     h_psi        :    174.45s CPU    174.95s WALL (   14281 calls)
     s_psi        :      6.68s CPU      6.71s WALL (   14281 calls)
     g_psi        :      7.02s CPU      7.04s WALL (    9001 calls)
     cdiaghg      :      2.31s CPU      2.37s WALL (   13321 calls)

     Called by h_psi:
     h_psi:pot    :    172.05s CPU    172.53s WALL (   14281 calls)
     h_psi:calbec :      7.09s CPU      7.11s WALL (   14281 calls)
     vloc_psi     :    158.24s CPU    158.69s WALL (   14281 calls)
     add_vuspsi   :      6.64s CPU      6.67s WALL (   14281 calls)

     General routines
     calbec       :     11.07s CPU     11.11s WALL (   21481 calls)
     fft          :      0.08s CPU      0.09s WALL (     136 calls)
     ffts         :      0.08s CPU      0.08s WALL (     124 calls)
     fftw         :    161.25s CPU    161.71s WALL (  262038 calls)
 
     Parallel routines
 
     PWSCF        :   5m36.81s CPU   6m 1.31s WALL

 
   This run was terminated on:   1:54:53  28May2020            

=------------------------------------------------------------------------------=
   JOB DONE.
=------------------------------------------------------------------------------=
