--------------------------------------------------------------------------
[[18472,1],0]: A high-performance Open MPI point-to-point messaging module
was unable to find any relevant network interfaces:

Module: OpenFabrics (openib)
  Host: ubuntu

Another transport will be used instead, although this may result in
lower performance.
--------------------------------------------------------------------------

     Program PWSCF v.5.1 starts on 29May2020 at  2: 6:45 

     This program is part of the open-source Quantum ESPRESSO suite
     for quantum simulation of materials; please cite
         "P. Giannozzi et al., J. Phys.:Condens. Matter 21 395502 (2009);
          URL http://www.quantum-espresso.org", 
     in publications or presentations arising from this work. More details at
     http://www.quantum-espresso.org/quote

     Parallel version (MPI), running on     1 processors
     Reading input from Al_100_surf_slab_4.pw.in

     Current dimensions of program PWSCF are:
     Max number of different atomic species (ntypx) = 10
     Max number of k-points (npk) =  40000
     Max angular momentum in pseudopotentials (lmaxx) =  3

     Subspace diagonalization in iterative solution of the eigenvalue problem:
     a serial algorithm will be used

     Found symmetry operation: I + ( -0.5000 -0.5000  0.0000)
     This is a supercell, fractional translations are disabled

     G-vector sticks info
     --------------------
     sticks:   dense  smooth     PW     G-vecs:    dense   smooth      PW
     Sum         681     681    421               108981   108981   51549



     bravais-lattice index     =            6
     lattice parameter (alat)  =       7.6050  a.u.
     unit-cell volume          =    3518.7438 (a.u.)^3
     number of atoms/cell      =           16
     number of atomic types    =            1
     number of electrons       =        48.00
     number of Kohn-Sham states=           29
     kinetic-energy cutoff     =      80.0000  Ry
     charge density cutoff     =     150.0000  Ry
     convergence threshold     =      1.0E-06
     mixing beta               =       0.3000
     number of iterations used =            8  local-TF  mixing
     Exchange-correlation      =  SLA  PW   PBE  PBE ( 1  4  3  4 0)
     nstep                     =           50


     celldm(1)=   7.605000  celldm(2)=   0.000000  celldm(3)=   8.000000
     celldm(4)=   0.000000  celldm(5)=   0.000000  celldm(6)=   0.000000

     crystal axes: (cart. coord. in units of alat)
               a(1) = (   1.000000   0.000000   0.000000 )  
               a(2) = (   0.000000   1.000000   0.000000 )  
               a(3) = (   0.000000   0.000000   8.000000 )  

     reciprocal axes: (cart. coord. in units 2 pi/alat)
               b(1) = (  1.000000  0.000000  0.000000 )  
               b(2) = (  0.000000  1.000000  0.000000 )  
               b(3) = (  0.000000  0.000000  0.125000 )  


     PseudoPot. # 1 for Al read from file:
     ./Al.pbe-n-van.UPF
     MD5 check sum: b11ded24487aef5bc42d5c7a2e22a7b6
     Pseudo is Ultrasoft + core correction, Zval =  3.0
     Generated by new atomic code, or converted to UPF format
     Using radial grid of  893 points,  2 beta functions with: 
                l(1) =   0
                l(2) =   1
     Q(r) pseudized with  8 coefficients,  rinner =    0.900   0.900   0.900


     atomic species   valence    mass     pseudopotential
        Al             3.00    26.98000     Al( 1.00)

      8 Sym. Ops. (no inversion) found



   Cartesian axes

     site n.     atom                  positions (alat units)
         1           Al  tau(   1) = (   0.0000000   0.0000000   0.0000000  )
         2           Al  tau(   2) = (   0.5000000   0.5000000   0.0000000  )
         3           Al  tau(   3) = (   0.5000000   0.0000000   0.5000000  )
         4           Al  tau(   4) = (   0.0000000   0.5000000   0.5000000  )
         5           Al  tau(   5) = (   0.0000000   0.0000000   1.0000000  )
         6           Al  tau(   6) = (   0.5000000   0.5000000   1.0000000  )
         7           Al  tau(   7) = (   0.5000000   0.0000000   1.5000000  )
         8           Al  tau(   8) = (   0.0000000   0.5000000   1.5000000  )
         9           Al  tau(   9) = (   0.0000000   0.0000000   2.0000000  )
        10           Al  tau(  10) = (   0.5000000   0.5000000   2.0000000  )
        11           Al  tau(  11) = (   0.5000000   0.0000000   2.5000000  )
        12           Al  tau(  12) = (   0.0000000   0.5000000   2.5000000  )
        13           Al  tau(  13) = (   0.0000000   0.0000000   3.0000000  )
        14           Al  tau(  14) = (   0.5000000   0.5000000   3.0000000  )
        15           Al  tau(  15) = (   0.5000000   0.0000000   3.5000000  )
        16           Al  tau(  16) = (   0.0000000   0.5000000   3.5000000  )

     number of k points=    45  Marzari-Vanderbilt smearing, width (Ry)=  0.0250
                       cart. coord. in units 2pi/alat
        k(    1) = (   0.0000000   0.0000000   0.0000000), wk =   0.0078125
        k(    2) = (   0.0000000   0.0625000   0.0000000), wk =   0.0312500
        k(    3) = (   0.0000000   0.1250000   0.0000000), wk =   0.0312500
        k(    4) = (   0.0000000   0.1875000   0.0000000), wk =   0.0312500
        k(    5) = (   0.0000000   0.2500000   0.0000000), wk =   0.0312500
        k(    6) = (   0.0000000   0.3125000   0.0000000), wk =   0.0312500
        k(    7) = (   0.0000000   0.3750000   0.0000000), wk =   0.0312500
        k(    8) = (   0.0000000   0.4375000   0.0000000), wk =   0.0312500
        k(    9) = (   0.0000000  -0.5000000   0.0000000), wk =   0.0156250
        k(   10) = (   0.0625000   0.0625000   0.0000000), wk =   0.0312500
        k(   11) = (   0.0625000   0.1250000   0.0000000), wk =   0.0625000
        k(   12) = (   0.0625000   0.1875000   0.0000000), wk =   0.0625000
        k(   13) = (   0.0625000   0.2500000   0.0000000), wk =   0.0625000
        k(   14) = (   0.0625000   0.3125000   0.0000000), wk =   0.0625000
        k(   15) = (   0.0625000   0.3750000   0.0000000), wk =   0.0625000
        k(   16) = (   0.0625000   0.4375000   0.0000000), wk =   0.0625000
        k(   17) = (   0.0625000  -0.5000000   0.0000000), wk =   0.0312500
        k(   18) = (   0.1250000   0.1250000   0.0000000), wk =   0.0312500
        k(   19) = (   0.1250000   0.1875000   0.0000000), wk =   0.0625000
        k(   20) = (   0.1250000   0.2500000   0.0000000), wk =   0.0625000
        k(   21) = (   0.1250000   0.3125000   0.0000000), wk =   0.0625000
        k(   22) = (   0.1250000   0.3750000   0.0000000), wk =   0.0625000
        k(   23) = (   0.1250000   0.4375000   0.0000000), wk =   0.0625000
        k(   24) = (   0.1250000  -0.5000000   0.0000000), wk =   0.0312500
        k(   25) = (   0.1875000   0.1875000   0.0000000), wk =   0.0312500
        k(   26) = (   0.1875000   0.2500000   0.0000000), wk =   0.0625000
        k(   27) = (   0.1875000   0.3125000   0.0000000), wk =   0.0625000
        k(   28) = (   0.1875000   0.3750000   0.0000000), wk =   0.0625000
        k(   29) = (   0.1875000   0.4375000   0.0000000), wk =   0.0625000
        k(   30) = (   0.1875000  -0.5000000   0.0000000), wk =   0.0312500
        k(   31) = (   0.2500000   0.2500000   0.0000000), wk =   0.0312500
        k(   32) = (   0.2500000   0.3125000   0.0000000), wk =   0.0625000
        k(   33) = (   0.2500000   0.3750000   0.0000000), wk =   0.0625000
        k(   34) = (   0.2500000   0.4375000   0.0000000), wk =   0.0625000
        k(   35) = (   0.2500000  -0.5000000   0.0000000), wk =   0.0312500
        k(   36) = (   0.3125000   0.3125000   0.0000000), wk =   0.0312500
        k(   37) = (   0.3125000   0.3750000   0.0000000), wk =   0.0625000
        k(   38) = (   0.3125000   0.4375000   0.0000000), wk =   0.0625000
        k(   39) = (   0.3125000  -0.5000000   0.0000000), wk =   0.0312500
        k(   40) = (   0.3750000   0.3750000   0.0000000), wk =   0.0312500
        k(   41) = (   0.3750000   0.4375000   0.0000000), wk =   0.0625000
        k(   42) = (   0.3750000  -0.5000000   0.0000000), wk =   0.0312500
        k(   43) = (   0.4375000   0.4375000   0.0000000), wk =   0.0312500
        k(   44) = (   0.4375000  -0.5000000   0.0000000), wk =   0.0312500
        k(   45) = (  -0.5000000  -0.5000000   0.0000000), wk =   0.0078125

     Dense  grid:   108981 G-vectors     FFT dimensions: (  30,  30, 240)

     Largest allocated arrays     est. size (Mb)     dimensions
        Kohn-Sham Wavefunctions        18.88 Mb     (   42664,   29)
        NL pseudopotentials            41.66 Mb     (   42664,   64)
        Each V/rho on FFT grid          3.30 Mb     (  216000)
        Each G-vector array             0.83 Mb     (  108981)
        G-vector shells                 0.02 Mb     (    2475)
     Largest temporary arrays     est. size (Mb)     dimensions
        Auxiliary wavefunctions        75.52 Mb     (   42664,  116)
        Each subspace H/S matrix        0.21 Mb     (     116,  116)
        Each <psi_i|beta_j> matrix      0.03 Mb     (      64,   29)
        Arrays for rho mixing          26.37 Mb     (  216000,    8)

     Initial potential from superposition of free atoms

     starting charge   47.96055, renormalised to   48.00000

     negative rho (up, down):  4.528E-05 0.000E+00
     Starting wfc are   64 randomized atomic wfcs

     total cpu time spent up to now is      144.4 secs

     per-process dynamical memory:   980.6 Mb

     Self-consistent Calculation

     iteration #  1     ecut=    80.00 Ry     beta=0.30
     Davidson diagonalization with overlap
     ethr =  1.00E-02,  avg # of iterations =  2.8

     total cpu time spent up to now is      371.6 secs

     total energy              =    -199.39828857 Ry
     Harris-Foulkes estimate   =    -199.44467007 Ry
     estimated scf accuracy    <       1.37500152 Ry

     iteration #  2     ecut=    80.00 Ry     beta=0.30
     Davidson diagonalization with overlap
     ethr =  2.86E-03,  avg # of iterations =  1.0

     negative rho (up, down):  6.855E-05 0.000E+00

     total cpu time spent up to now is      509.3 secs

     total energy              =    -199.23564571 Ry
     Harris-Foulkes estimate   =    -199.41025321 Ry
     estimated scf accuracy    <       1.03483121 Ry

     iteration #  3     ecut=    80.00 Ry     beta=0.30
     Davidson diagonalization with overlap
     ethr =  2.16E-03,  avg # of iterations =  2.0

     total cpu time spent up to now is      661.3 secs

     total energy              =    -199.30823608 Ry
     Harris-Foulkes estimate   =    -199.35690770 Ry
     estimated scf accuracy    <       0.35101267 Ry

     iteration #  4     ecut=    80.00 Ry     beta=0.30
     Davidson diagonalization with overlap
     ethr =  7.31E-04,  avg # of iterations =  2.0

     total cpu time spent up to now is      808.3 secs

     total energy              =    -199.33000936 Ry
     Harris-Foulkes estimate   =    -199.33065899 Ry
     estimated scf accuracy    <       0.02076045 Ry

     iteration #  5     ecut=    80.00 Ry     beta=0.30
     Davidson diagonalization with overlap
     ethr =  4.33E-05,  avg # of iterations =  4.1

     total cpu time spent up to now is      975.9 secs

     total energy              =    -199.32561992 Ry
     Harris-Foulkes estimate   =    -199.33195415 Ry
     estimated scf accuracy    <       0.02532649 Ry

     iteration #  6     ecut=    80.00 Ry     beta=0.30
     Davidson diagonalization with overlap
     ethr =  4.33E-05,  avg # of iterations =  2.7

     total cpu time spent up to now is     1171.8 secs

     total energy              =    -199.32850050 Ry
     Harris-Foulkes estimate   =    -199.32778397 Ry
     estimated scf accuracy    <       0.06015927 Ry

     iteration #  7     ecut=    80.00 Ry     beta=0.30
     Davidson diagonalization with overlap
     ethr =  4.33E-05,  avg # of iterations =  1.0

     negative rho (up, down):  6.222E-03 0.000E+00

     total cpu time spent up to now is     1311.8 secs

     total energy              =    -199.32241993 Ry
     Harris-Foulkes estimate   =    -199.32869410 Ry
     estimated scf accuracy    <       0.07201933 Ry

     iteration #  8     ecut=    80.00 Ry     beta=0.30
     Davidson diagonalization with overlap
     ethr =  4.33E-05,  avg # of iterations =  2.0

     negative rho (up, down):  1.179E-02 0.000E+00

     total cpu time spent up to now is     1462.9 secs

     total energy              =    -199.32424535 Ry
     Harris-Foulkes estimate   =    -199.32464951 Ry
     estimated scf accuracy    <       0.00415073 Ry

     iteration #  9     ecut=    80.00 Ry     beta=0.30
     Davidson diagonalization with overlap
     ethr =  8.65E-06,  avg # of iterations =  3.6

     negative rho (up, down):  1.582E-02 0.000E+00

     total cpu time spent up to now is     1625.7 secs

     total energy              =    -199.32407578 Ry
     Harris-Foulkes estimate   =    -199.32463249 Ry
     estimated scf accuracy    <       0.00480107 Ry

     iteration # 10     ecut=    80.00 Ry     beta=0.30
     Davidson diagonalization with overlap
     ethr =  8.65E-06,  avg # of iterations =  2.3

     negative rho (up, down):  2.088E-02 0.000E+00

     total cpu time spent up to now is     1788.9 secs

     total energy              =    -199.32523234 Ry
     Harris-Foulkes estimate   =    -199.32473128 Ry
     estimated scf accuracy    <       0.01549068 Ry

     iteration # 11     ecut=    80.00 Ry     beta=0.30
     Davidson diagonalization with overlap
     ethr =  8.65E-06,  avg # of iterations =  1.0

     negative rho (up, down):  6.291E-03 0.000E+00

     total cpu time spent up to now is     1928.1 secs

     total energy              =    -199.32311359 Ry
     Harris-Foulkes estimate   =    -199.32530812 Ry
     estimated scf accuracy    <       0.02374591 Ry

     iteration # 12     ecut=    80.00 Ry     beta=0.30
     Davidson diagonalization with overlap
     ethr =  8.65E-06,  avg # of iterations =  2.9

     negative rho (up, down):  3.058E-03 0.000E+00

     total cpu time spent up to now is     2092.7 secs

     total energy              =    -199.32383954 Ry
     Harris-Foulkes estimate   =    -199.32393976 Ry
     estimated scf accuracy    <       0.00063683 Ry

     iteration # 13     ecut=    80.00 Ry     beta=0.30
     Davidson diagonalization with overlap
     ethr =  1.33E-06,  avg # of iterations =  3.4

     negative rho (up, down):  1.110E-03 0.000E+00

     total cpu time spent up to now is     2258.7 secs

     total energy              =    -199.32388379 Ry
     Harris-Foulkes estimate   =    -199.32391571 Ry
     estimated scf accuracy    <       0.00017753 Ry

     iteration # 14     ecut=    80.00 Ry     beta=0.30
     Davidson diagonalization with overlap
     ethr =  3.70E-07,  avg # of iterations =  1.3

     negative rho (up, down):  1.574E-04 0.000E+00

     total cpu time spent up to now is     2397.6 secs

     total energy              =    -199.32388589 Ry
     Harris-Foulkes estimate   =    -199.32388905 Ry
     estimated scf accuracy    <       0.00004737 Ry

     iteration # 15     ecut=    80.00 Ry     beta=0.30
     Davidson diagonalization with overlap
     ethr =  9.87E-08,  avg # of iterations =  2.9

     negative rho (up, down):  1.254E-04 0.000E+00

     total cpu time spent up to now is     2560.8 secs

     total energy              =    -199.32388962 Ry
     Harris-Foulkes estimate   =    -199.32388970 Ry
     estimated scf accuracy    <       0.00000130 Ry

     iteration # 16     ecut=    80.00 Ry     beta=0.30
     Davidson diagonalization with overlap
     ethr =  2.71E-09,  avg # of iterations =  3.6

     negative rho (up, down):  1.640E-04 0.000E+00

     total cpu time spent up to now is     2756.3 secs

     total energy              =    -199.32388873 Ry
     Harris-Foulkes estimate   =    -199.32389022 Ry
     estimated scf accuracy    <       0.00000796 Ry

     iteration # 17     ecut=    80.00 Ry     beta=0.30
     Davidson diagonalization with overlap
     ethr =  2.71E-09,  avg # of iterations =  3.2

     negative rho (up, down):  1.654E-05 0.000E+00

     total cpu time spent up to now is     2941.5 secs

     total energy              =    -199.32389017 Ry
     Harris-Foulkes estimate   =    -199.32388950 Ry
     estimated scf accuracy    <       0.00000357 Ry

     iteration # 18     ecut=    80.00 Ry     beta=0.30
     Davidson diagonalization with overlap
     ethr =  2.71E-09,  avg # of iterations =  2.7

     negative rho (up, down):  6.205E-06 0.000E+00

     total cpu time spent up to now is     3105.7 secs

     End of self-consistent calculation

          k = 0.0000 0.0000 0.0000 ( 42481 PWs)   bands (ev):

    -9.1860  -8.7881  -8.1446  -7.2507  -6.1313  -4.8034  -3.2764  -1.5004
    -0.9101  -0.9101  -0.5440  -0.5440  -0.4166   0.0485   0.0485   0.4548
     0.4548   0.8334   0.8334   0.8770   0.8770   1.4311   1.4311   1.9225
     1.9225   1.9981   2.3735   2.3735   3.1750

          k = 0.0000 0.0625 0.0000 ( 42511 PWs)   bands (ev):

    -9.1503  -8.7524  -8.1091  -7.2153  -6.0962  -4.7686  -3.2419  -1.4808
    -1.4661  -1.1076  -0.8773  -0.5112  -0.5053  -0.3835   0.0813   0.3274
     0.4935   0.8599   0.9098   1.0886   1.4003   1.4083   1.5453   1.9553
     1.9943   2.0310   2.5017   2.6787   2.8984

          k = 0.0000 0.1250 0.0000 ( 42485 PWs)   bands (ev):

    -9.0430  -8.6454  -8.0025  -7.1093  -5.9909  -4.6641  -3.1384  -2.3840
    -2.0053  -1.3941  -1.3632  -0.7788  -0.5457  -0.4128  -0.2841   0.1798
     0.4989   0.5914   1.0074   1.0083   1.5219   1.9159   2.0536   2.1295
     2.1685   2.4651   2.5340   3.1900   3.3059

          k = 0.0000 0.1875 0.0000 ( 42492 PWs)   bands (ev):

    -8.8644  -8.4672  -7.8251  -6.9329  -5.8156  -4.4903  -3.2821  -2.9661
    -2.8999  -2.2825  -1.4249  -1.1921  -0.6148  -0.3545  -0.2487  -0.1186
     0.3439   0.7279   0.9428   1.1505   1.1723   1.8443   2.2176   2.2920
     2.4311   2.6787   3.3745   3.4696   3.5631

          k = 0.0000 0.2500 0.0000 ( 42520 PWs)   bands (ev):

    -8.6148  -8.2182  -7.5771  -6.6862  -5.5706  -4.2472  -4.1325  -3.7475
    -3.1255  -2.7254  -2.2612  -1.1801  -0.9532  -0.3850  -0.0190   0.0935
     0.1129   0.5736   1.0067   1.2806   1.4020   1.7403   2.0663   2.4471
     2.5149   2.9088   3.3107   3.6987   3.8200

          k = 0.0000 0.3125 0.0000 ( 42514 PWs)   bands (ev):

    -8.2945  -7.8986  -7.2588  -6.3696  -5.2562  -4.9245  -4.5372  -3.9354
    -3.9114  -3.0417  -2.4166  -1.9531  -0.6648  -0.6473  -0.0896   0.2765
     0.4103   0.7889   0.8690   1.2874   1.6973   1.7810   2.3591   2.6298
     2.7421   2.7873   3.0642   3.1787   3.4299

          k = 0.0000 0.3750 0.0000 ( 42504 PWs)   bands (ev):

    -7.9039  -7.5090  -6.8707  -5.9837  -5.6536  -5.2643  -4.8729  -4.6353
    -3.7611  -3.5552  -2.6665  -2.0404  -1.3694  -0.2755   0.1137   0.2716
     0.6376   0.7732   1.2301   1.5257   2.0582   2.0638   2.1281   2.3741
     2.7399   2.7423   2.8502   3.0593   3.1027

          k = 0.0000 0.4375 0.0000 ( 42512 PWs)   bands (ev):

    -7.4437  -7.0499  -6.4134  -6.3175  -5.9265  -5.5289  -5.2946  -4.4213
    -4.4165  -3.3169  -3.1075  -2.0132  -1.5975  -0.5175   0.1600   0.6985
     1.0645   1.1871   1.2010   1.6569   1.7498   2.1157   2.2033   2.2460
     2.4848   2.5551   2.7077   3.0467   3.1722

          k = 0.0000-0.5000 0.0000 ( 42494 PWs)   bands (ev):

    -6.9146  -6.9146  -6.5221  -6.5221  -5.8878  -5.8878  -5.0062  -5.0062
    -3.9024  -3.9023  -2.5931  -2.5931  -1.0893  -1.0892   0.6543   0.6543
     1.1912   1.1912   1.5572   1.5572   1.6928   1.6928   2.1495   2.1495
     2.6360   2.6360   2.9771   2.9771   3.0441

          k = 0.0625 0.0625 0.0000 ( 42495 PWs)   bands (ev):

    -9.1145  -8.7167  -8.0736  -7.1800  -6.0611  -4.7338  -3.2074  -1.4475
    -1.4475  -1.4318  -1.0746  -1.0746  -0.4727  -0.4727  -0.3504   0.3695
     0.3695   1.1203   1.1203   1.3788   1.3788   1.5475   1.5475   2.0637
     2.0847   2.0847   2.7211   2.7211   3.0099

          k = 0.0625 0.1250 0.0000 ( 42490 PWs)   bands (ev):

    -9.0073  -8.6097  -7.9670  -7.0740  -5.9558  -4.6293  -3.1039  -2.3501
    -1.9717  -1.3618  -1.3472  -1.3290  -0.9735  -0.5309  -0.3478  -0.2511
     0.4359   0.5946   1.2162   1.5252   1.6072   1.7978   2.1612   2.2023
     2.2793   2.5874   2.7560   2.9904   3.3123

          k = 0.0625 0.1875 0.0000 ( 42527 PWs)   bands (ev):

    -8.8288  -8.4316  -7.7896  -6.8976  -5.7806  -4.4555  -3.2479  -2.9317
    -2.8658  -2.2488  -1.3933  -1.1793  -1.1580  -0.8117  -0.3132  -0.2016
    -0.0856   0.6470   0.9495   1.4014   1.6991   1.7458   2.3206   2.4259
     2.4852   2.9574   3.2430   3.4206   3.7394

          k = 0.0625 0.2500 0.0000 ( 42499 PWs)   bands (ev):

    -8.5792  -8.1827  -7.5417  -6.6510  -5.5356  -4.2125  -4.0980  -3.7131
    -3.0914  -2.6911  -2.2276  -1.1500  -0.9473  -0.9194  -0.5680  -0.0062
     0.1459   0.1806   0.8762   1.5575   1.6191   1.9289   2.1099   2.5272
     2.6566   3.1834   3.3445   3.3758   3.4852

          k = 0.0625 0.3125 0.0000 ( 42459 PWs)   bands (ev):

    -8.2589  -7.8632  -7.2234  -6.3345  -5.2213  -4.8898  -4.5026  -3.9008
    -3.8769  -3.0076  -2.3824  -1.9198  -0.6788  -0.6139  -0.6002  -0.2748
     0.3410   0.4431   0.8506   1.1781   1.8774   2.2175   2.3614   2.4739
     2.6894   2.9023   2.9291   2.9675   3.4071

          k = 0.0625 0.3750 0.0000 ( 42493 PWs)   bands (ev):

    -7.8684  -7.4736  -6.8354  -5.9486  -5.6187  -5.2295  -4.8381  -4.6006
    -3.7266  -3.5208  -2.6325  -2.0064  -1.3368  -0.2805  -0.2433   0.0311
     0.2225   0.7029   0.8056   1.5389   1.8146   1.8402   2.2168   2.4080
     2.6109   2.7182   2.8135   2.8910   3.2038

          k = 0.0625 0.4375 0.0000 ( 42516 PWs)   bands (ev):

    -7.4083  -7.0147  -6.3783  -6.2824  -5.8915  -5.4940  -5.2598  -4.3867
    -4.3819  -3.2826  -3.0732  -1.9795  -1.5638  -0.4875   0.1454   0.1877
     0.5384   1.1290   1.2270   1.2327   1.2690   1.5921   1.9594   2.1909
     2.2924   2.7628   3.0283   3.0284   3.1429

          k = 0.0625-0.5000 0.0000 ( 42534 PWs)   bands (ev):

    -6.8793  -6.8793  -6.4870  -6.4870  -5.8528  -5.8528  -4.9715  -4.9714
    -3.8678  -3.8678  -2.5590  -2.5590  -1.0563  -1.0563   0.5608   0.5609
     0.7922   0.7922   1.0315   1.0315   1.6305   1.6305   1.7216   1.7216
     2.4717   2.4718   3.1901   3.1901   3.5179

          k = 0.1250 0.1250 0.0000 ( 42471 PWs)   bands (ev):

    -8.9001  -8.5029  -7.8606  -6.9682  -5.8507  -4.5250  -3.0006  -2.2487
    -2.2487  -1.8710  -1.8710  -1.2618  -1.2618  -1.2265  -0.4031  -0.4031
    -0.1518   0.6688   0.6688   1.9148   1.9148   2.2543   2.3141   2.3141
     2.6614   2.6614   3.3005   3.3006   3.4377

          k = 0.1250 0.1875 0.0000 ( 42496 PWs)   bands (ev):

    -8.7217  -8.3249  -7.6833  -6.7919  -5.6756  -4.3513  -3.1453  -2.8286
    -2.7637  -2.1488  -2.0794  -1.7007  -1.3118  -1.0629  -1.0560  -0.3018
    -0.1356   0.0134   0.8281   1.0744   2.0776   2.3931   2.4672   2.4920
     2.9450   3.3162   3.4660   3.4913   3.5700

          k = 0.1250 0.2500 0.0000 ( 42507 PWs)   bands (ev):

    -8.4723  -8.0761  -7.4355  -6.5454  -5.4308  -4.1085  -3.9946  -3.6101
    -2.9891  -2.5882  -2.1283  -1.8417  -1.4730  -1.0347  -0.8510  -0.8181
     0.0096   0.2446   0.2502   1.0710   1.6997   2.3225   2.3480   2.6672
     2.7932   2.8050   3.1256   3.4074   3.4338

          k = 0.1250 0.3125 0.0000 ( 42535 PWs)   bands (ev):

    -8.1523  -7.7568  -7.1175  -6.2291  -5.1167  -4.7857  -4.3988  -3.7971
    -3.7737  -2.9054  -2.2799  -1.8222  -1.5401  -1.1543  -0.6221  -0.5145
    -0.4408   0.3060   0.5412   0.9633   1.3656   1.6627   2.0471   2.6077
     2.6283   2.6463   3.0142   3.1195   3.4146

          k = 0.1250 0.3750 0.0000 ( 42509 PWs)   bands (ev):

    -7.7621  -7.3676  -6.7298  -5.8436  -5.5140  -5.1252  -4.7338  -4.4967
    -3.6235  -3.4174  -2.5308  -1.9045  -1.2597  -1.1451  -0.7931  -0.1661
    -0.1500   0.2678   0.6789   0.9025   0.9896   1.3567   1.6991   1.9600
     2.0354   2.8038   2.8621   3.1588   3.3354

          k = 0.1250 0.4375 0.0000 ( 42465 PWs)   bands (ev):

    -7.3023  -6.9089  -6.2730  -6.1773  -5.7867  -5.3893  -5.1554  -4.2828
    -4.2781  -3.1798  -2.9703  -1.8789  -1.4632  -0.7321  -0.4698  -0.2525
     0.1858   0.2650   0.4631   0.7282   1.1072   1.3256   1.3320   1.3685
     2.1812   2.1868   2.3738   3.2206   3.4599

          k = 0.1250-0.5000 0.0000 ( 42510 PWs)   bands (ev):

    -6.7737  -6.7737  -6.3816  -6.3816  -5.7479  -5.7479  -4.8672  -4.8672
    -3.7644  -3.7644  -2.4569  -2.4569  -0.9595  -0.9595  -0.2394  -0.2394
     0.1663   0.1664   0.7504   0.7504   0.8383   0.8383   1.5848   1.5848
     1.8484   1.8485   2.6727   2.6728   3.9412

          k = 0.1875 0.1875 0.0000 ( 42457 PWs)   bands (ev):

    -8.5436  -8.1471  -7.5063  -6.6158  -5.5007  -4.1779  -2.9746  -2.9746
    -2.6569  -2.5941  -2.5941  -1.9801  -1.9801  -1.1126  -1.1126  -0.8864
    -0.0325  -0.0325   0.1784   1.2350   1.2350   2.2643   2.6928   2.6928
     2.7451   2.7548   3.3613   3.6415   3.6415

          k = 0.1875 0.2500 0.0000 ( 42501 PWs)   bands (ev):

    -8.2945  -7.8986  -7.2588  -6.3696  -5.2562  -3.9354  -3.8225  -3.4387
    -2.8201  -2.7358  -2.4170  -2.3542  -1.9779  -1.7109  -0.9496  -0.7890
    -0.6506   0.1897   0.4088   0.4290   1.4493   1.5534   1.9149   1.9404
     2.5405   2.8965   2.8976   3.3868   3.5797

          k = 0.1875 0.3125 0.0000 ( 42504 PWs)   bands (ev):

    -7.9748  -7.5798  -6.9412  -6.0538  -4.9425  -4.6124  -4.2260  -3.6244
    -3.6021  -2.7371  -2.4281  -2.1095  -2.0577  -1.6364  -1.4299  -0.5650
    -0.3534  -0.3466   0.5038   0.7040   0.8179   1.1189   1.1862   1.7905
     1.7914   2.6380   2.7844   3.1594   3.3370

          k = 0.1875 0.3750 0.0000 ( 42521 PWs)   bands (ev):

    -7.5851  -7.1910  -6.5539  -5.6687  -5.3398  -4.9514  -4.5602  -4.3238
    -3.4521  -3.2454  -2.3643  -2.0566  -1.7355  -1.6680  -1.1426  -0.9667
    -0.2000  -0.0764   0.2178   0.4368   0.4911   0.8653   1.0609   1.0974
     1.9501   2.1337   2.1728   2.9906   3.1906

          k = 0.1875 0.4375 0.0000 ( 42480 PWs)   bands (ev):

    -7.1259  -6.7329  -6.0977  -6.0022  -5.6120  -5.2150  -4.9815  -4.1098
    -4.1054  -3.0090  -2.7992  -1.7294  -1.5952  -1.2981  -1.2374  -0.6071
    -0.5484  -0.1995  -0.1389   0.2432   0.4381   0.5172   1.2599   1.2787
     1.5262   1.6004   2.3781   2.4104   2.7318

          k = 0.1875-0.5000 0.0000 ( 42482 PWs)   bands (ev):

    -6.5979  -6.5979  -6.2063  -6.2062  -5.5732  -5.5732  -4.6936  -4.6936
    -3.5922  -3.5922  -2.2876  -2.2875  -1.1092  -1.1092  -0.8632  -0.8632
    -0.6373  -0.6373  -0.1066  -0.1066   0.7394   0.7394   0.9750   0.9751
     1.8262   1.8262   1.9799   1.9800   3.1051

          k = 0.2500 0.2500 0.0000 ( 42565 PWs)   bands (ev):

    -8.0458  -7.6506  -7.0117  -6.1239  -5.0122  -3.6935  -3.5820  -3.5820
    -3.1994  -3.1994  -2.5819  -2.5819  -2.1779  -1.7090  -1.7090  -0.6254
    -0.6254  -0.4213   0.6378   0.6503   0.6503   0.7582   1.1269   1.7326
     2.1249   2.1249   2.5800   3.0972   3.6583

          k = 0.2500 0.3125 0.0000 ( 42540 PWs)   bands (ev):

    -7.7267  -7.3322  -6.6946  -5.8086  -4.6991  -4.3702  -3.9848  -3.3832
    -3.3635  -3.2732  -2.8896  -2.5166  -2.2438  -1.8718  -1.4751  -1.3278
    -0.3370  -0.2087  -0.0987   0.0908   0.3676   0.9285   0.9288   0.9749
     1.3977   1.8292   2.3870   2.8701   3.1625

          k = 0.2500 0.3750 0.0000 ( 42487 PWs)   bands (ev):

    -7.3376  -6.9441  -6.3080  -5.4242  -5.0962  -4.7085  -4.3175  -4.0823
    -3.2141  -3.0052  -2.8956  -2.5235  -2.1091  -1.8924  -1.5018  -1.0258
    -0.8170  -0.7398  -0.3293   0.0484   0.2432   0.3221   0.6554   1.0885
     1.3313   1.3413   2.1934   2.3381   2.9038

          k = 0.2500 0.4375 0.0000 ( 42519 PWs)   bands (ev):

    -6.8791  -6.4868  -5.8526  -5.7574  -5.3679  -4.9714  -4.7385  -3.8680
    -3.8642  -2.7731  -2.5609  -2.4543  -2.0641  -1.5379  -1.3712  -1.3684
    -1.1279  -0.9015  -0.5918  -0.3634   0.0362   0.4776   0.4849   0.7080
     1.5755   1.7163   1.7501   1.7834   2.8002

          k = 0.2500-0.5000 0.0000 ( 42464 PWs)   bands (ev):

    -6.3521  -6.3521  -5.9611  -5.9611  -5.3291  -5.3291  -4.4510  -4.4509
    -3.3520  -3.3520  -2.0673  -2.0673  -1.9249  -1.9249  -1.5640  -1.5640
    -0.9328  -0.9328  -0.5368  -0.5368  -0.0789  -0.0789   0.9361   0.9361
     1.2755   1.2755   2.0833   2.0834   2.4162

          k = 0.3125 0.3125 0.0000 ( 42539 PWs)   bands (ev):

    -7.4082  -7.0146  -6.3782  -5.4940  -4.3868  -4.0596  -4.0596  -3.6755
    -3.6755  -3.0739  -3.0553  -3.0553  -2.1791  -2.1791  -1.5698  -1.0937
    -1.0937  -0.8043  -0.3936   0.1774   0.1878   0.1878   0.2568   1.0244
     1.2662   1.6695   1.6695   2.1309   3.3879

          k = 0.3125 0.3750 0.0000 ( 42567 PWs)   bands (ev):

    -7.0200  -6.6273  -5.9925  -5.1105  -4.7837  -4.3971  -4.0062  -3.7737
    -3.6807  -3.2958  -2.9233  -2.6978  -2.6488  -1.8715  -1.7385  -1.4995
    -1.2607  -1.0351  -0.7378  -0.4985  -0.4936   0.3559   0.5326   0.5737
     1.0034   1.4482   1.5842   1.9962   2.7799

          k = 0.3125 0.4375 0.0000 ( 42562 PWs)   bands (ev):

    -6.5626  -6.1710  -5.5382  -5.4433  -5.0547  -4.6588  -4.4269  -3.5584
    -3.5565  -3.2333  -2.8598  -2.4489  -2.2708  -2.2269  -2.1249  -1.7622
    -1.3596  -1.1554  -1.1309  -0.7401  -0.2816  -0.2749   0.3213   0.7393
     1.0153   1.0781   1.8861   2.0099   2.2241

          k = 0.3125-0.5000 0.0000 ( 42548 PWs)   bands (ev):

    -6.0367  -6.0367  -5.6465  -5.6465  -5.0159  -5.0159  -4.1400  -4.1400
    -3.0466  -3.0466  -2.7223  -2.7223  -2.3315  -2.3314  -1.8027  -1.8027
    -1.6442  -1.6442  -0.8567  -0.8567  -0.2325  -0.2325   0.2153   0.2153
     1.4905   1.4905   1.5193   1.5193   2.5383

          k = 0.3750 0.3750 0.0000 ( 42600 PWs)   bands (ev):

    -6.6328  -6.2411  -5.6079  -4.7282  -4.4029  -4.4029  -4.0177  -4.0177
    -3.6272  -3.3958  -3.3958  -2.5174  -2.5174  -2.3387  -2.1919  -1.8286
    -1.4311  -1.4311  -1.1973  -0.8081  -0.3406  -0.1455  -0.1455   0.6734
     1.0120   1.3404   1.3404   1.8202   2.1597

          k = 0.3750 0.4375 0.0000 ( 42534 PWs)   bands (ev):

    -6.1766  -5.7860  -5.1549  -5.0605  -4.6731  -4.2781  -4.0484  -3.9540
    -3.5682  -3.1955  -3.1836  -2.9208  -2.8571  -2.4659  -2.1365  -2.0148
    -1.9354  -1.7817  -1.0070  -0.9900  -0.7665  -0.3672   0.0833   0.2664
     0.7386   1.3599   1.3864   1.7333   2.4070

          k = 0.3750-0.5000 0.0000 ( 42602 PWs)   bands (ev):

    -5.6522  -5.6522  -5.2630  -5.2630  -4.6343  -4.6343  -3.7626  -3.7626
    -3.4370  -3.4370  -3.0627  -3.0626  -2.6535  -2.6535  -2.4288  -2.4288
    -1.5613  -1.5613  -1.3593  -1.3593  -0.4810  -0.4810   0.1199   0.1199
     0.8181   0.8181   1.8113   1.8113   2.3904

          k = 0.4375 0.4375 0.0000 ( 42608 PWs)   bands (ev):

    -5.7219  -5.3325  -4.7035  -4.6096  -4.6096  -4.2238  -4.2238  -3.8314
    -3.6008  -3.6008  -3.5051  -3.1304  -2.7218  -2.7213  -2.7213  -2.4963
    -1.6344  -1.6344  -1.6287  -1.4274  -0.5477  -0.3465  -0.3465   0.0527
     0.7522   1.1419   1.1419   1.7449   2.3254

          k = 0.4375-0.5000 0.0000 ( 42578 PWs)   bands (ev):

    -5.1992  -5.1992  -4.8114  -4.8114  -4.1861  -4.1861  -4.0911  -4.0911
    -3.7049  -3.7049  -3.3319  -3.3319  -3.0573  -3.0573  -2.2693  -2.2693
    -2.1537  -2.1537  -1.1422  -1.1422  -0.9009  -0.9009   0.1328   0.1328
     0.6057   0.6057   1.6012   1.6012   2.3903

          k =-0.5000-0.5000 0.0000 ( 42664 PWs)   bands (ev):

    -4.6786  -4.6786  -4.6786  -4.6786  -4.2926  -4.2926  -4.2926  -4.2926
    -3.6693  -3.6693  -3.6693  -3.6693  -2.7894  -2.7894  -2.7894  -2.7894
    -1.7023  -1.7023  -1.7023  -1.7023  -0.4136  -0.4136  -0.4136  -0.4136
     1.0755   1.0756   1.0756   1.0756   2.8051

     the Fermi energy is     1.9339 ev

!    total energy              =    -199.32389032 Ry
     Harris-Foulkes estimate   =    -199.32389043 Ry
     estimated scf accuracy    <       0.00000004 Ry

     The total energy is the sum of the following terms:

     one-electron contribution =   -1220.67598140 Ry
     hartree contribution      =     623.60736499 Ry
     xc contribution           =    -160.14191940 Ry
     ewald contribution        =     557.88677315 Ry
     smearing contrib. (-TS)   =      -0.00012765 Ry

     convergence has been achieved in  18 iterations

     Forces acting on atoms (Ry/au):


     negative rho (up, down):  6.205E-06 0.000E+00
     atom    1 type  1   force =     0.00000000    0.00000000   -0.00246897
     atom    2 type  1   force =     0.00000000    0.00000000   -0.00246865
     atom    3 type  1   force =     0.00000000    0.00000000    0.00218232
     atom    4 type  1   force =     0.00000000    0.00000000    0.00218232
     atom    5 type  1   force =     0.00000000    0.00000000    0.00123812
     atom    6 type  1   force =     0.00000000    0.00000000    0.00123677
     atom    7 type  1   force =     0.00000000    0.00000000    0.00133564
     atom    8 type  1   force =     0.00000000    0.00000000    0.00133564
     atom    9 type  1   force =     0.00000000    0.00000000   -0.00133439
     atom   10 type  1   force =     0.00000000    0.00000000   -0.00133676
     atom   11 type  1   force =     0.00000000    0.00000000   -0.00123730
     atom   12 type  1   force =     0.00000000    0.00000000   -0.00123730
     atom   13 type  1   force =     0.00000000    0.00000000   -0.00218290
     atom   14 type  1   force =     0.00000000    0.00000000   -0.00218181
     atom   15 type  1   force =     0.00000000    0.00000000    0.00246864
     atom   16 type  1   force =     0.00000000    0.00000000    0.00246864

     Total force =     0.007529     Total SCF correction =     0.000279


     entering subroutine stress ...


     negative rho (up, down):  6.205E-06 0.000E+00
          total   stress  (Ry/bohr**3)                   (kbar)     P=   -5.17
  -0.00005403   0.00000000   0.00000000         -7.95      0.00      0.00
   0.00000000  -0.00005403   0.00000000          0.00     -7.95      0.00
   0.00000000   0.00000000   0.00000267          0.00      0.00      0.39


     BFGS Geometry Optimization

     number of scf cycles    =   1
     number of bfgs steps    =   0

     energy   new            =    -199.3238903223 Ry

     new trust radius        =       0.0024689701 bohr
     new conv_thr            =       0.0000010000 Ry


ATOMIC_POSITIONS (crystal)
Al       0.000000000   0.000000000  -0.000040581
Al       0.500000000   0.500000000  -0.000040576
Al       0.500000000   0.000000000   0.062535870
Al       0.000000000   0.500000000   0.062535870
Al       0.000000000   0.000000000   0.125020350
Al       0.500000000   0.500000000   0.125020328
Al       0.500000000   0.000000000   0.187521953
Al       0.000000000   0.500000000   0.187521953
Al       0.000000000   0.000000000   0.249978067
Al       0.500000000   0.500000000   0.249978028
Al       0.500000000   0.000000000   0.312479663
Al       0.000000000   0.500000000   0.312479663
Al       0.000000000   0.000000000   0.374964121
Al       0.500000000   0.500000000   0.374964139
Al       0.500000000   0.000000000   0.437540576
Al       0.000000000   0.500000000   0.437540576



     Writing output data file Al_100_4_4.save
     NEW-OLD atomic charge density approx. for the potential

     negative rho (up, down):  6.032E-06 0.000E+00

     total cpu time spent up to now is     3190.3 secs

     per-process dynamical memory:   994.2 Mb

     Self-consistent Calculation

     iteration #  1     ecut=    80.00 Ry     beta=0.30
     Davidson diagonalization with overlap
     ethr =  1.00E-06,  avg # of iterations =  2.0

     Threshold (ethr) on eigenvalues was too large:
     Diagonalizing with lowered threshold

     Davidson diagonalization with overlap
     ethr =  3.29E-08,  avg # of iterations =  3.2

     negative rho (up, down):  6.004E-06 0.000E+00

     total cpu time spent up to now is     3527.8 secs

     total energy              =    -199.32394510 Ry
     Harris-Foulkes estimate   =    -199.32394614 Ry
     estimated scf accuracy    <       0.00003058 Ry

     iteration #  2     ecut=    80.00 Ry     beta=0.30
     Davidson diagonalization with overlap
     ethr =  6.37E-08,  avg # of iterations =  1.0

     negative rho (up, down):  6.214E-06 0.000E+00

     total cpu time spent up to now is     3671.0 secs

     total energy              =    -199.32394252 Ry
     Harris-Foulkes estimate   =    -199.32394526 Ry
     estimated scf accuracy    <       0.00001862 Ry

     iteration #  3     ecut=    80.00 Ry     beta=0.30
     Davidson diagonalization with overlap
     ethr =  3.88E-08,  avg # of iterations =  2.3

     negative rho (up, down):  6.214E-06 0.000E+00

     total cpu time spent up to now is     3825.4 secs

     total energy              =    -199.32394406 Ry
     Harris-Foulkes estimate   =    -199.32394432 Ry
     estimated scf accuracy    <       0.00000256 Ry

     iteration #  4     ecut=    80.00 Ry     beta=0.30
     Davidson diagonalization with overlap
     ethr =  5.34E-09,  avg # of iterations =  1.6

     negative rho (up, down):  6.182E-06 0.000E+00

     total cpu time spent up to now is     3964.9 secs

     End of self-consistent calculation

          k = 0.0000 0.0000 0.0000 ( 42481 PWs)   bands (ev):

    -9.1864  -8.7860  -8.1422  -7.2474  -6.1309  -4.8038  -3.2772  -1.5014
    -0.9105  -0.9105  -0.5419  -0.5419  -0.4176   0.0512   0.0512   0.4545
     0.4545   0.8354   0.8354   0.8808   0.8808   1.4328   1.4328   1.9229
     1.9229   1.9979   2.3772   2.3772   3.1745

          k = 0.0000 0.0625 0.0000 ( 42511 PWs)   bands (ev):

    -9.1506  -8.7503  -8.1067  -7.2120  -6.0958  -4.7689  -3.2427  -1.4811
    -1.4671  -1.1055  -0.8777  -0.5091  -0.5028  -0.3845   0.0840   0.3309
     0.4931   0.8617   0.9136   1.0882   1.4011   1.4112   1.5466   1.9557
     1.9959   2.0308   2.5054   2.6782   2.9020

          k = 0.0000 0.1250 0.0000 ( 42485 PWs)   bands (ev):

    -9.0433  -8.6433  -8.0001  -7.1061  -5.9905  -4.6645  -3.1392  -2.3843
    -2.0032  -1.3916  -1.3642  -0.7792  -0.5422  -0.4106  -0.2851   0.1824
     0.4993   0.5909   1.0096   1.0120   1.5240   1.9159   2.0540   2.1293
     2.1682   2.4673   2.5357   3.1921   3.3054

          k = 0.0000 0.1875 0.0000 ( 42492 PWs)   bands (ev):

    -8.8648  -8.4652  -7.8227  -6.9296  -5.8153  -4.4906  -3.2825  -2.9670
    -2.8978  -2.2800  -1.4215  -1.1931  -0.6152  -0.3540  -0.2465  -0.1196
     0.3465   0.7271   0.9432   1.1526   1.1761   1.8464   2.2180   2.2918
     2.4302   2.6817   3.3740   3.4691   3.5635

          k = 0.0000 0.2500 0.0000 ( 42520 PWs)   bands (ev):

    -8.6151  -8.2161  -7.5746  -6.6829  -5.5702  -4.2475  -4.1329  -3.7454
    -3.1231  -2.7262  -2.2578  -1.1797  -0.9542  -0.3854  -0.0168   0.0931
     0.1119   0.5762   1.0065   1.2820   1.4057   1.7401   2.0685   2.4475
     2.5147   2.9117   3.3099   3.6981   3.8196

          k = 0.0000 0.3125 0.0000 ( 42514 PWs)   bands (ev):

    -8.2948  -7.8966  -7.2563  -6.3663  -5.2558  -4.9248  -4.5351  -3.9357
    -3.9089  -3.0383  -2.4174  -1.9527  -0.6652  -0.6483  -0.0900   0.2787
     0.4093   0.7883   0.8717   1.2871   1.7011   1.7829   2.3611   2.6291
     2.7425   2.7871   3.0638   3.1811   3.4321

          k = 0.0000 0.3750 0.0000 ( 42504 PWs)   bands (ev):

    -7.9042  -7.5069  -6.8682  -5.9804  -5.6539  -5.2623  -4.8725  -4.6328
    -3.7577  -3.5556  -2.6661  -2.0412  -1.3698  -0.2765   0.1130   0.2712
     0.6398   0.7722   1.2328   1.5252   2.0620   2.0631   2.1300   2.3737
     2.7421   2.7446   2.8494   3.0590   3.1031

          k = 0.0000 0.4375 0.0000 ( 42512 PWs)   bands (ev):

    -7.4440  -7.0478  -6.4110  -6.3178  -5.9244  -5.5256  -5.2922  -4.4210
    -4.4132  -3.3166  -3.1079  -2.0135  -1.5983  -0.5183   0.1590   0.6981
     1.0667   1.1862   1.2001   1.6596   1.7494   2.1179   2.2028   2.2451
     2.4886   2.5572   2.7104   3.0461   3.1745

          k = 0.0000-0.5000 0.0000 ( 42494 PWs)   bands (ev):

    -6.9149  -6.9149  -6.5200  -6.5200  -5.8853  -5.8853  -5.0029  -5.0029
    -3.9020  -3.9020  -2.5934  -2.5934  -1.0900  -1.0900   0.6533   0.6533
     1.1908   1.1908   1.5594   1.5594   1.6918   1.6918   2.1521   2.1521
     2.6356   2.6356   2.9809   2.9809   3.0462

          k = 0.0625 0.0625 0.0000 ( 42495 PWs)   bands (ev):

    -9.1148  -8.7146  -8.0711  -7.1767  -6.0607  -4.7341  -3.2082  -1.4478
    -1.4478  -1.4328  -1.0724  -1.0724  -0.4702  -0.4702  -0.3514   0.3731
     0.3731   1.1200   1.1200   1.3794   1.3794   1.5496   1.5496   2.0635
     2.0867   2.0867   2.7207   2.7207   3.0134

          k = 0.0625 0.1250 0.0000 ( 42490 PWs)   bands (ev):

    -9.0076  -8.6077  -7.9646  -7.0708  -5.9555  -4.6297  -3.1048  -2.3505
    -1.9696  -1.3592  -1.3476  -1.3300  -0.9714  -0.5277  -0.3449  -0.2521
     0.4390   0.5955   1.2157   1.5256   1.6093   1.7982   2.1610   2.2018
     2.2813   2.5892   2.7561   2.9921   3.3125

          k = 0.0625 0.1875 0.0000 ( 42527 PWs)   bands (ev):

    -8.8291  -8.4296  -7.7872  -6.8943  -5.7802  -4.4559  -3.2482  -2.9326
    -2.8637  -2.2463  -1.3899  -1.1797  -1.1591  -0.8097  -0.3126  -0.1990
    -0.0866   0.6505   0.9490   1.4013   1.6995   1.7478   2.3203   2.4281
     2.4844   2.9570   3.2460   3.4202   3.7410

          k = 0.0625 0.2500 0.0000 ( 42499 PWs)   bands (ev):

    -8.5795  -8.1806  -7.5392  -6.6477  -5.5353  -4.2129  -4.0984  -3.7110
    -3.0889  -2.6919  -2.2242  -1.1496  -0.9477  -0.9204  -0.5658  -0.0041
     0.1449   0.1807   0.8798   1.5572   1.6188   1.9293   2.1114   2.5270
     2.6589   3.1830   3.3442   3.3750   3.4883

          k = 0.0625 0.3125 0.0000 ( 42459 PWs)   bands (ev):

    -8.2592  -7.8611  -7.2210  -6.3312  -5.2209  -4.8901  -4.5005  -3.9011
    -3.8745  -3.0042  -2.3832  -1.9194  -0.6795  -0.6149  -0.6002  -0.2726
     0.3435   0.4421   0.8499   1.1816   1.8770   2.2178   2.3634   2.4735
     2.6886   2.9045   2.9289   2.9698   3.4067

          k = 0.0625 0.3750 0.0000 ( 42493 PWs)   bands (ev):

    -7.8687  -7.4716  -6.8330  -5.9453  -5.6190  -5.2274  -4.8377  -4.5982
    -3.7233  -3.5211  -2.6321  -2.0072  -1.3371  -0.2808  -0.2443   0.0323
     0.2226   0.7055   0.8047   1.5425   1.8138   1.8398   2.2190   2.4075
     2.6114   2.7203   2.8160   2.8902   3.2037

          k = 0.0625 0.4375 0.0000 ( 42516 PWs)   bands (ev):

    -7.4086  -7.0126  -6.3759  -6.2827  -5.8895  -5.4907  -5.2574  -4.3863
    -4.3786  -3.2822  -3.0735  -1.9798  -1.5646  -0.4882   0.1451   0.1867
     0.5405   1.1314   1.2266   1.2318   1.2682   1.5942   1.9628   2.1935
     2.2917   2.7623   3.0287   3.0321   3.1449

          k = 0.0625-0.5000 0.0000 ( 42534 PWs)   bands (ev):

    -6.8797  -6.8797  -6.4849  -6.4849  -5.8504  -5.8503  -4.9681  -4.9681
    -3.8675  -3.8675  -2.5593  -2.5593  -1.0571  -1.0571   0.5602   0.5602
     0.7914   0.7914   1.0336   1.0336   1.6330   1.6331   1.7206   1.7206
     2.4754   2.4754   3.1897   3.1897   3.5183

          k = 0.1250 0.1250 0.0000 ( 42471 PWs)   bands (ev):

    -8.9005  -8.5008  -7.8581  -6.9649  -5.8503  -4.5254  -3.0014  -2.2490
    -2.2490  -1.8689  -1.8689  -1.2594  -1.2594  -1.2275  -0.3995  -0.3995
    -0.1528   0.6692   0.6692   1.9144   1.9144   2.2541   2.3140   2.3140
     2.6634   2.6634   3.3026   3.3026   3.4369

          k = 0.1250 0.1875 0.0000 ( 42496 PWs)   bands (ev):

    -8.7221  -8.3228  -7.6809  -6.7886  -5.6752  -4.3517  -3.1456  -2.8294
    -2.7616  -2.1463  -2.0798  -1.6987  -1.3087  -1.0601  -1.0570  -0.2993
    -0.1343   0.0124   0.8284   1.0743   2.0773   2.3928   2.4669   2.4918
     2.9466   3.3159   3.4677   3.4916   3.5721

          k = 0.1250 0.2500 0.0000 ( 42507 PWs)   bands (ev):

    -8.4727  -8.0740  -7.4331  -6.5421  -5.4304  -4.1089  -3.9950  -3.6080
    -2.9867  -2.5890  -2.1249  -1.8421  -1.4710  -1.0341  -0.8484  -0.8192
     0.0130   0.2436   0.2498   1.0715   1.6990   2.3221   2.3477   2.6668
     2.7954   2.8049   3.1276   3.4100   3.4332

          k = 0.1250 0.3125 0.0000 ( 42535 PWs)   bands (ev):

    -8.1526  -7.7548  -7.1151  -6.2259  -5.1163  -4.7860  -4.3967  -3.7974
    -3.7713  -2.9021  -2.2807  -1.8218  -1.5405  -1.1521  -0.6205  -0.5155
    -0.4401   0.3094   0.5402   0.9626   1.3660   1.6623   2.0492   2.6070
     2.6280   2.6488   3.0142   3.1190   3.4167

          k = 0.1250 0.3750 0.0000 ( 42509 PWs)   bands (ev):

    -7.7624  -7.3655  -6.7274  -5.8403  -5.5144  -5.1231  -4.7334  -4.4943
    -3.6202  -3.4177  -2.5305  -1.9053  -1.2603  -1.1451  -0.7910  -0.1636
    -0.1510   0.2670   0.6824   0.9016   0.9892   1.3589   1.6993   1.9626
     2.0348   2.8074   2.8616   3.1580   3.3353

          k = 0.1250 0.4375 0.0000 ( 42465 PWs)   bands (ev):

    -7.3027  -6.9069  -6.2706  -6.1776  -5.7846  -5.3860  -5.1529  -4.2824
    -4.2748  -3.1794  -2.9707  -1.8792  -1.4640  -0.7324  -0.4692  -0.2517
     0.1851   0.2675   0.4624   0.7303   1.1107   1.3246   1.3346   1.3676
     2.1847   2.1873   2.3730   3.2210   3.4595

          k = 0.1250-0.5000 0.0000 ( 42510 PWs)   bands (ev):

    -6.7741  -6.7741  -6.3796  -6.3796  -5.7455  -5.7454  -4.8639  -4.8639
    -3.7640  -3.7640  -2.4572  -2.4572  -0.9603  -0.9603  -0.2398  -0.2398
     0.1684   0.1684   0.7522   0.7522   0.8380   0.8380   1.5878   1.5878
     1.8480   1.8480   2.6732   2.6732   3.9408

          k = 0.1875 0.1875 0.0000 ( 42457 PWs)   bands (ev):

    -8.5439  -8.1451  -7.5038  -6.6125  -5.5003  -4.1782  -2.9750  -2.9750
    -2.6577  -2.5920  -2.5920  -1.9777  -1.9777  -1.1091  -1.1091  -0.8874
    -0.0322  -0.0322   0.1774   1.2347   1.2347   2.2638   2.6921   2.6921
     2.7473   2.7547   3.3639   3.6411   3.6411

          k = 0.1875 0.2500 0.0000 ( 42501 PWs)   bands (ev):

    -8.2948  -7.8966  -7.2563  -6.3663  -5.2558  -3.9358  -3.8228  -3.4366
    -2.8177  -2.7361  -2.4178  -2.3522  -1.9748  -1.7081  -0.9472  -0.7875
    -0.6516   0.1899   0.4078   0.4289   1.4489   1.5530   1.9142   1.9425
     2.5429   2.8965   2.8970   3.3904   3.5788

          k = 0.1875 0.3125 0.0000 ( 42504 PWs)   bands (ev):

    -7.9751  -7.5777  -6.9387  -6.0505  -4.9422  -4.6128  -4.2240  -3.6247
    -3.5996  -2.7337  -2.4285  -2.1103  -2.0558  -1.6357  -1.4274  -0.5616
    -0.3544  -0.3470   0.5043   0.7031   0.8176   1.1181   1.1884   1.7902
     1.7939   2.6415   2.7838   3.1594   3.3359

          k = 0.1875 0.3750 0.0000 ( 42521 PWs)   bands (ev):

    -7.5854  -7.1889  -6.5515  -5.6654  -5.3401  -4.9493  -4.5598  -4.3214
    -3.4487  -3.2457  -2.3640  -2.0570  -1.7362  -1.6659  -1.1413  -0.9658
    -0.1966  -0.0771   0.2171   0.4360   0.4932   0.8658   1.0600   1.0999
     1.9536   2.1334   2.1720   2.9911   3.1897

          k = 0.1875 0.4375 0.0000 ( 42480 PWs)   bands (ev):

    -7.1262  -6.7308  -6.0953  -6.0025  -5.6099  -5.2117  -4.9791  -4.1094
    -4.1021  -3.0087  -2.7996  -1.7300  -1.5953  -1.2989  -1.2353  -0.6046
    -0.5488  -0.2003  -0.1368   0.2467   0.4393   0.5175   1.2600   1.2815
     1.5260   1.5998   2.3786   2.4099   2.7311

          k = 0.1875-0.5000 0.0000 ( 42482 PWs)   bands (ev):

    -6.5983  -6.5982  -6.2042  -6.2042  -5.5708  -5.5708  -4.6903  -4.6902
    -3.5919  -3.5919  -2.2879  -2.2879  -1.1095  -1.1095  -0.8628  -0.8628
    -0.6364  -0.6364  -0.1041  -0.1041   0.7429   0.7429   0.9741   0.9741
     1.8267   1.8267   1.9791   1.9791   3.1047

          k = 0.2500 0.2500 0.0000 ( 42565 PWs)   bands (ev):

    -8.0461  -7.6485  -7.0092  -6.1206  -5.0118  -3.6938  -3.5824  -3.5824
    -3.1973  -3.1973  -2.5795  -2.5795  -2.1787  -1.7056  -1.7056  -0.6251
    -0.6251  -0.4223   0.6368   0.6501   0.6501   0.7578   1.1290   1.7351
     2.1241   2.1241   2.5835   3.0972   3.6588

          k = 0.2500 0.3125 0.0000 ( 42540 PWs)   bands (ev):

    -7.7270  -7.3301  -6.6922  -5.8053  -4.6987  -4.3706  -3.9827  -3.3835
    -3.3610  -3.2735  -2.8876  -2.5135  -2.2410  -1.8726  -1.4727  -1.3263
    -0.3368  -0.2095  -0.0987   0.0902   0.3697   0.9275   0.9285   0.9774
     1.3970   1.8327   2.3864   2.8706   3.1615

          k = 0.2500 0.3750 0.0000 ( 42487 PWs)   bands (ev):

    -7.3379  -6.9420  -6.3056  -5.4209  -5.0966  -4.7064  -4.3171  -4.0799
    -3.2108  -3.0055  -2.8960  -2.5216  -2.1085  -1.8899  -1.5025  -1.0225
    -0.8174  -0.7402  -0.3272   0.0489   0.2441   0.3227   0.6546   1.0912
     1.3312   1.3410   2.1939   2.3374   2.9027

          k = 0.2500 0.4375 0.0000 ( 42519 PWs)   bands (ev):

    -6.8795  -6.4847  -5.8502  -5.7577  -5.3658  -4.9681  -4.7361  -3.8677
    -3.8609  -2.7727  -2.5612  -2.4546  -2.0620  -1.5367  -1.3702  -1.3687
    -1.1276  -0.9005  -0.5885  -0.3609   0.0355   0.4780   0.4884   0.7071
     1.5760   1.7154   1.7498   1.7826   2.7993

          k = 0.2500-0.5000 0.0000 ( 42464 PWs)   bands (ev):

    -6.3525  -6.3524  -5.9590  -5.9590  -5.3267  -5.3267  -4.4476  -4.4476
    -3.3517  -3.3516  -2.0679  -2.0679  -1.9250  -1.9250  -1.5619  -1.5619
    -0.9303  -0.9303  -0.5376  -0.5376  -0.0754  -0.0754   0.9362   0.9362
     1.2749   1.2749   2.0829   2.0829   2.4155

          k = 0.3125 0.3125 0.0000 ( 42539 PWs)   bands (ev):

    -7.4086  -7.0125  -6.3758  -5.4907  -4.3864  -4.0600  -4.0600  -3.6734
    -3.6734  -3.0742  -3.0530  -3.0530  -2.1757  -2.1757  -1.5705  -1.0934
    -1.0934  -0.8047  -0.3915   0.1783   0.1876   0.1876   0.2574   1.0271
     1.2660   1.6687   1.6687   2.1314   3.3872

          k = 0.3125 0.3750 0.0000 ( 42567 PWs)   bands (ev):

    -7.0203  -6.6252  -5.9901  -5.1072  -4.7840  -4.3950  -4.0058  -3.7713
    -3.6810  -3.2938  -2.9202  -2.6981  -2.6461  -1.8692  -1.7370  -1.4998
    -1.2604  -1.0341  -0.7377  -0.4985  -0.4911   0.3593   0.5323   0.5727
     1.0028   1.4487   1.5834   1.9955   2.7787

          k = 0.3125 0.4375 0.0000 ( 42562 PWs)   bands (ev):

    -6.5629  -6.1689  -5.5357  -5.4437  -5.0526  -4.6555  -4.4245  -3.5580
    -3.5532  -3.2336  -2.8578  -2.4483  -2.2713  -2.2243  -2.1250  -1.7601
    -1.3563  -1.1558  -1.1285  -0.7410  -0.2811  -0.2714   0.3205   0.7394
     1.0150   1.0775   1.8856   2.0092   2.2234

          k = 0.3125-0.5000 0.0000 ( 42548 PWs)   bands (ev):

    -6.0370  -6.0370  -5.6444  -5.6444  -5.0135  -5.0135  -4.1367  -4.1367
    -3.0462  -3.0462  -2.7227  -2.7227  -2.3293  -2.3293  -1.8015  -1.8015
    -1.6432  -1.6432  -0.8534  -0.8534  -0.2332  -0.2332   0.2157   0.2157
     1.4903   1.4903   1.5185   1.5185   2.5374

          k = 0.3750 0.3750 0.0000 ( 42600 PWs)   bands (ev):

    -6.6331  -6.2390  -5.6055  -4.7249  -4.4032  -4.4032  -4.0156  -4.0156
    -3.6268  -3.3934  -3.3934  -2.5140  -2.5140  -2.3393  -2.1920  -1.8265
    -1.4307  -1.4307  -1.1949  -0.8089  -0.3372  -0.1458  -0.1458   0.6735
     1.0114   1.3397   1.3397   1.8197   2.1590

          k = 0.3750 0.4375 0.0000 ( 42534 PWs)   bands (ev):

    -6.1769  -5.7840  -5.1524  -5.0608  -4.6710  -4.2748  -4.0460  -3.9543
    -3.5662  -3.1924  -3.1833  -2.9181  -2.8575  -2.4637  -2.1343  -2.0133
    -1.9342  -1.7806  -1.0070  -0.9867  -0.7665  -0.3679   0.0837   0.2661
     0.7379   1.3596   1.3856   1.7326   2.4061

          k = 0.3750-0.5000 0.0000 ( 42602 PWs)   bands (ev):

    -5.6525  -5.6525  -5.2609  -5.2609  -4.6319  -4.6319  -3.7593  -3.7593
    -3.4374  -3.4374  -3.0607  -3.0607  -2.6529  -2.6529  -2.4263  -2.4263
    -1.5580  -1.5580  -1.3597  -1.3597  -0.4805  -0.4805   0.1191   0.1191
     0.8179   0.8179   1.8107   1.8107   2.3893

          k = 0.4375 0.4375 0.0000 ( 42608 PWs)   bands (ev):

    -5.7222  -5.3304  -4.7011  -4.6099  -4.6099  -4.2217  -4.2217  -3.8281
    -3.5984  -3.5984  -3.5055  -3.1285  -2.7213  -2.7179  -2.7179  -2.4938
    -1.6341  -1.6341  -1.6254  -1.4278  -0.5472  -0.3467  -0.3467   0.0519
     0.7520   1.1412   1.1412   1.7443   2.3244

          k = 0.4375-0.5000 0.0000 ( 42578 PWs)   bands (ev):

    -5.1995  -5.1995  -4.8093  -4.8093  -4.1836  -4.1836  -4.0914  -4.0914
    -3.7029  -3.7029  -3.3288  -3.3288  -3.0546  -3.0546  -2.2670  -2.2670
    -2.1522  -2.1522  -1.1422  -1.1422  -0.9009  -0.9009   0.1324   0.1325
     0.6050   0.6050   1.6006   1.6006   2.3894

          k =-0.5000-0.5000 0.0000 ( 42664 PWs)   bands (ev):

    -4.6790  -4.6790  -4.6790  -4.6790  -4.2905  -4.2905  -4.2905  -4.2905
    -3.6669  -3.6669  -3.6669  -3.6669  -2.7860  -2.7860  -2.7860  -2.7860
    -1.7020  -1.7020  -1.7020  -1.7020  -0.4139  -0.4139  -0.4139  -0.4138
     1.0749   1.0749   1.0749   1.0749   2.8045

     the Fermi energy is     1.9344 ev

!    total energy              =    -199.32394414 Ry
     Harris-Foulkes estimate   =    -199.32394421 Ry
     estimated scf accuracy    <       0.00000009 Ry

     The total energy is the sum of the following terms:

     one-electron contribution =   -1220.65544051 Ry
     hartree contribution      =     623.59427210 Ry
     xc contribution           =    -160.14062689 Ry
     ewald contribution        =     557.87797468 Ry
     smearing contrib. (-TS)   =      -0.00012352 Ry

     convergence has been achieved in   4 iterations

     Forces acting on atoms (Ry/au):


     negative rho (up, down):  6.182E-06 0.000E+00
     atom    1 type  1   force =     0.00000000    0.00000000   -0.00220542
     atom    2 type  1   force =     0.00000000    0.00000000   -0.00220518
     atom    3 type  1   force =     0.00000000    0.00000000    0.00188285
     atom    4 type  1   force =     0.00000000    0.00000000    0.00188285
     atom    5 type  1   force =     0.00000000    0.00000000    0.00126879
     atom    6 type  1   force =     0.00000000    0.00000000    0.00126754
     atom    7 type  1   force =     0.00000000    0.00000000    0.00116935
     atom    8 type  1   force =     0.00000000    0.00000000    0.00116935
     atom    9 type  1   force =     0.00000000    0.00000000   -0.00116807
     atom   10 type  1   force =     0.00000000    0.00000000   -0.00117039
     atom   11 type  1   force =     0.00000000    0.00000000   -0.00126757
     atom   12 type  1   force =     0.00000000    0.00000000   -0.00126757
     atom   13 type  1   force =     0.00000000    0.00000000   -0.00188390
     atom   14 type  1   force =     0.00000000    0.00000000   -0.00188298
     atom   15 type  1   force =     0.00000000    0.00000000    0.00220518
     atom   16 type  1   force =     0.00000000    0.00000000    0.00220518

     Total force =     0.006748     Total SCF correction =     0.000502


     entering subroutine stress ...


     negative rho (up, down):  6.182E-06 0.000E+00
          total   stress  (Ry/bohr**3)                   (kbar)     P=   -5.22
  -0.00005431   0.00000000   0.00000000         -7.99      0.00      0.00
   0.00000000  -0.00005431   0.00000000          0.00     -7.99      0.00
   0.00000000   0.00000000   0.00000209          0.00      0.00      0.31


     number of scf cycles    =   2
     number of bfgs steps    =   1

     energy   old            =    -199.3238903223 Ry
     energy   new            =    -199.3239441365 Ry

     CASE: energy  _new < energy  _old


     WARNING: bfgs curvature condition failed, Theta= 0.894
     new trust radius        =       0.0027158671 bohr
     new conv_thr            =       0.0000000100 Ry


ATOMIC_POSITIONS (crystal)
Al       0.000000000   0.000000000  -0.000085221
Al       0.500000000   0.500000000  -0.000085211
Al       0.500000000   0.000000000   0.062574224
Al       0.000000000   0.500000000   0.062574224
Al       0.000000000   0.000000000   0.125045434
Al       0.500000000   0.500000000   0.125045387
Al       0.500000000   0.000000000   0.187545709
Al       0.000000000   0.500000000   0.187545709
Al       0.000000000   0.000000000   0.249954337
Al       0.500000000   0.500000000   0.249954252
Al       0.500000000   0.000000000   0.312454602
Al       0.000000000   0.500000000   0.312454602
Al       0.000000000   0.000000000   0.374925747
Al       0.500000000   0.500000000   0.374925783
Al       0.500000000   0.000000000   0.437585210
Al       0.000000000   0.500000000   0.437585210



     Writing output data file Al_100_4_4.save
     NEW-OLD atomic charge density approx. for the potential

     negative rho (up, down):  5.998E-06 0.000E+00

     total cpu time spent up to now is     4049.5 secs

     per-process dynamical memory:   994.2 Mb

     Self-consistent Calculation

     iteration #  1     ecut=    80.00 Ry     beta=0.30
     Davidson diagonalization with overlap
     ethr =  1.00E-06,  avg # of iterations =  2.2

     negative rho (up, down):  4.350E-06 0.000E+00

     total cpu time spent up to now is     4223.1 secs

     total energy              =    -199.32399779 Ry
     Harris-Foulkes estimate   =    -199.32399955 Ry
     estimated scf accuracy    <       0.00009459 Ry

     iteration #  2     ecut=    80.00 Ry     beta=0.30
     Davidson diagonalization with overlap
     ethr =  1.97E-07,  avg # of iterations =  1.2

     negative rho (up, down):  9.745E-07 0.000E+00

     total cpu time spent up to now is     4364.6 secs

     total energy              =    -199.32399134 Ry
     Harris-Foulkes estimate   =    -199.32399989 Ry
     estimated scf accuracy    <       0.00007063 Ry

     iteration #  3     ecut=    80.00 Ry     beta=0.30
     Davidson diagonalization with overlap
     ethr =  1.47E-07,  avg # of iterations =  2.4

     negative rho (up, down):  1.942E-06 0.000E+00

     total cpu time spent up to now is     4515.0 secs

     total energy              =    -199.32399615 Ry
     Harris-Foulkes estimate   =    -199.32399802 Ry
     estimated scf accuracy    <       0.00002431 Ry

     iteration #  4     ecut=    80.00 Ry     beta=0.30
     Davidson diagonalization with overlap
     ethr =  5.07E-08,  avg # of iterations =  1.2

     negative rho (up, down):  2.288E-06 0.000E+00

     total cpu time spent up to now is     4656.7 secs

     total energy              =    -199.32399711 Ry
     Harris-Foulkes estimate   =    -199.32399714 Ry
     estimated scf accuracy    <       0.00000051 Ry

     iteration #  5     ecut=    80.00 Ry     beta=0.30
     Davidson diagonalization with overlap
     ethr =  1.07E-09,  avg # of iterations =  4.2

     negative rho (up, down):  2.727E-06 0.000E+00

     total cpu time spent up to now is     4831.8 secs

     total energy              =    -199.32399714 Ry
     Harris-Foulkes estimate   =    -199.32399724 Ry
     estimated scf accuracy    <       0.00000059 Ry

     iteration #  6     ecut=    80.00 Ry     beta=0.30
     Davidson diagonalization with overlap
     ethr =  1.07E-09,  avg # of iterations =  2.3

     negative rho (up, down):  3.355E-06 0.000E+00

     total cpu time spent up to now is     4984.6 secs

     total energy              =    -199.32399719 Ry
     Harris-Foulkes estimate   =    -199.32399720 Ry
     estimated scf accuracy    <       0.00000020 Ry

     iteration #  7     ecut=    80.00 Ry     beta=0.30
     Davidson diagonalization with overlap
     ethr =  4.20E-10,  avg # of iterations =  1.0

     negative rho (up, down):  4.163E-06 0.000E+00

     total cpu time spent up to now is     5125.5 secs

     total energy              =    -199.32399718 Ry
     Harris-Foulkes estimate   =    -199.32399719 Ry
     estimated scf accuracy    <       0.00000010 Ry

     iteration #  8     ecut=    80.00 Ry     beta=0.30
     Davidson diagonalization with overlap
     ethr =  2.02E-10,  avg # of iterations =  2.4

     negative rho (up, down):  5.242E-06 0.000E+00

     total cpu time spent up to now is     5283.3 secs

     total energy              =    -199.32399719 Ry
     Harris-Foulkes estimate   =    -199.32399719 Ry
     estimated scf accuracy    <       0.00000005 Ry

     iteration #  9     ecut=    80.00 Ry     beta=0.30
     Davidson diagonalization with overlap
     ethr =  1.00E-10,  avg # of iterations =  2.1

     negative rho (up, down):  5.619E-06 0.000E+00

     total cpu time spent up to now is     5431.4 secs

     total energy              =    -199.32399719 Ry
     Harris-Foulkes estimate   =    -199.32399719 Ry
     estimated scf accuracy    <       0.00000019 Ry

     iteration # 10     ecut=    80.00 Ry     beta=0.30
     Davidson diagonalization with overlap
     ethr =  1.00E-10,  avg # of iterations =  1.0

     negative rho (up, down):  6.050E-06 0.000E+00

     total cpu time spent up to now is     5573.0 secs

     total energy              =    -199.32399718 Ry
     Harris-Foulkes estimate   =    -199.32399719 Ry
     estimated scf accuracy    <       0.00000014 Ry

     iteration # 11     ecut=    80.00 Ry     beta=0.30
     Davidson diagonalization with overlap
     ethr =  1.00E-10,  avg # of iterations =  1.0

     negative rho (up, down):  6.082E-06 0.000E+00

     total cpu time spent up to now is     5714.8 secs

     total energy              =    -199.32399718 Ry
     Harris-Foulkes estimate   =    -199.32399718 Ry
     estimated scf accuracy    <       0.00000006 Ry

     iteration # 12     ecut=    80.00 Ry     beta=0.30
     Davidson diagonalization with overlap
     ethr =  1.00E-10,  avg # of iterations =  1.0

     negative rho (up, down):  6.018E-06 0.000E+00

     total cpu time spent up to now is     5857.1 secs

     total energy              =    -199.32399718 Ry
     Harris-Foulkes estimate   =    -199.32399718 Ry
     estimated scf accuracy    <       0.00000003 Ry

     iteration # 13     ecut=    80.00 Ry     beta=0.30
     Davidson diagonalization with overlap
     ethr =  5.63E-11,  avg # of iterations =  1.6

     negative rho (up, down):  6.160E-06 0.000E+00

     total cpu time spent up to now is     5996.5 secs

     End of self-consistent calculation

          k = 0.0000 0.0000 0.0000 ( 42481 PWs)   bands (ev):

    -9.1868  -8.7838  -8.1396  -7.2441  -6.1304  -4.8041  -3.2781  -1.5025
    -0.9110  -0.9110  -0.5395  -0.5395  -0.4187   0.0540   0.0540   0.4541
     0.4541   0.8376   0.8376   0.8845   0.8845   1.4346   1.4346   1.9235
     1.9235   1.9976   2.3810   2.3810   3.1740

          k = 0.0000 0.0625 0.0000 ( 42511 PWs)   bands (ev):

    -9.1511  -8.7481  -8.1041  -7.2088  -6.0953  -4.7693  -3.2436  -1.4816
    -1.4681  -1.1032  -0.8782  -0.5067  -0.5001  -0.3855   0.0868   0.3344
     0.4926   0.8637   0.9173   1.0877   1.4021   1.4144   1.5478   1.9562
     1.9976   2.0306   2.5091   2.6778   2.9057

          k = 0.0000 0.1250 0.0000 ( 42485 PWs)   bands (ev):

    -9.0438  -8.6411  -7.9975  -7.1028  -5.9901  -4.6648  -3.1401  -2.3848
    -2.0010  -1.3889  -1.3653  -0.7797  -0.5388  -0.4083  -0.2862   0.1852
     0.4997   0.5903   1.0120   1.0158   1.5262   1.9159   2.0546   2.1290
     2.1678   2.4694   2.5375   3.1942   3.3049

          k = 0.0000 0.1875 0.0000 ( 42492 PWs)   bands (ev):

    -8.8652  -8.4630  -7.8201  -6.9263  -5.8148  -4.4909  -3.2829  -2.9679
    -2.8955  -2.2774  -1.4181  -1.1942  -0.6157  -0.3535  -0.2442  -0.1207
     0.3493   0.7261   0.9437   1.1548   1.1798   1.8485   2.2185   2.2916
     2.4291   2.6846   3.3732   3.4686   3.5640

          k = 0.0000 0.2500 0.0000 ( 42520 PWs)   bands (ev):

    -8.6156  -8.2139  -7.5720  -6.6796  -5.5697  -4.2479  -4.1334  -3.7432
    -3.1204  -2.7271  -2.2545  -1.1792  -0.9553  -0.3859  -0.0144   0.0928
     0.1109   0.5791   1.0061   1.2834   1.4095   1.7399   2.0709   2.4480
     2.5145   2.9146   3.3092   3.6976   3.8190

          k = 0.0000 0.3125 0.0000 ( 42514 PWs)   bands (ev):

    -8.2953  -7.8943  -7.2537  -6.3631  -5.2553  -4.9253  -4.5329  -3.9360
    -3.9063  -3.0350  -2.4183  -1.9522  -0.6655  -0.6494  -0.0905   0.2810
     0.4083   0.7876   0.8745   1.2867   1.7048   1.7848   2.3633   2.6285
     2.7431   2.7868   3.0633   3.1836   3.4345

          k = 0.0000 0.3750 0.0000 ( 42504 PWs)   bands (ev):

    -7.9047  -7.5047  -6.8657  -5.9771  -5.6544  -5.2600  -4.8720  -4.6302
    -3.7544  -3.5559  -2.6656  -2.0421  -1.3701  -0.2776   0.1122   0.2707
     0.6422   0.7712   1.2356   1.5245   2.0622   2.0658   2.1322   2.3732
     2.7445   2.7471   2.8486   3.0586   3.1037

          k = 0.0000 0.4375 0.0000 ( 42512 PWs)   bands (ev):

    -7.4445  -7.0456  -6.4084  -6.3183  -5.9222  -5.5224  -5.2896  -4.4205
    -4.4099  -3.3160  -3.1082  -2.0138  -1.5992  -0.5191   0.1580   0.6976
     1.0691   1.1852   1.1991   1.6624   1.7488   2.1202   2.2023   2.2441
     2.4924   2.5593   2.7133   3.0455   3.1770

          k = 0.0000-0.5000 0.0000 ( 42494 PWs)   bands (ev):

    -6.9154  -6.9154  -6.5178  -6.5178  -5.8827  -5.8827  -4.9997  -4.9996
    -3.9015  -3.9015  -2.5938  -2.5937  -1.0909  -1.0909   0.6523   0.6523
     1.1903   1.1903   1.5618   1.5618   1.6908   1.6908   2.1550   2.1550
     2.6350   2.6350   2.9847   2.9847   3.0484

          k = 0.0625 0.0625 0.0000 ( 42495 PWs)   bands (ev):

    -9.1153  -8.7124  -8.0686  -7.1735  -6.0602  -4.7344  -3.2091  -1.4483
    -1.4483  -1.4339  -1.0702  -1.0702  -0.4675  -0.4675  -0.3524   0.3767
     0.3767   1.1195   1.1195   1.3800   1.3800   1.5519   1.5519   2.0633
     2.0888   2.0888   2.7203   2.7203   3.0170

          k = 0.0625 0.1250 0.0000 ( 42490 PWs)   bands (ev):

    -9.0081  -8.6054  -7.9620  -7.0675  -5.9550  -4.6300  -3.1057  -2.3510
    -1.9674  -1.3566  -1.3481  -1.3311  -0.9692  -0.5246  -0.3419  -0.2531
     0.4421   0.5965   1.2151   1.5261   1.6117   1.7987   2.1608   2.2012
     2.2834   2.5910   2.7562   2.9939   3.3125

          k = 0.0625 0.1875 0.0000 ( 42527 PWs)   bands (ev):

    -8.8296  -8.4273  -7.7846  -6.8911  -5.7797  -4.4562  -3.2487  -2.9335
    -2.8614  -2.2437  -1.3866  -1.1802  -1.1601  -0.8075  -0.3119  -0.1962
    -0.0877   0.6540   0.9486   1.4010   1.7001   1.7500   2.3201   2.4306
     2.4835   2.9566   3.2491   3.4196   3.7427

          k = 0.0625 0.2500 0.0000 ( 42499 PWs)   bands (ev):

    -8.5800  -8.1784  -7.5366  -6.6444  -5.5348  -4.2132  -4.0989  -3.7088
    -3.0863  -2.6928  -2.2209  -1.1490  -0.9483  -0.9215  -0.5635  -0.0018
     0.1438   0.1809   0.8833   1.5569   1.6183   1.9298   2.1131   2.5267
     2.6614   3.1826   3.3437   3.3743   3.4913

          k = 0.0625 0.3125 0.0000 ( 42459 PWs)   bands (ev):

    -8.2597  -7.8589  -7.2184  -6.3279  -5.2204  -4.8906  -4.4982  -3.9014
    -3.8719  -3.0009  -2.3841  -1.9188  -0.6802  -0.6160  -0.6001  -0.2703
     0.3462   0.4410   0.8490   1.1852   1.8765   2.2183   2.3655   2.4729
     2.6879   2.9068   2.9287   2.9723   3.4063

          k = 0.0625 0.3750 0.0000 ( 42493 PWs)   bands (ev):

    -7.8692  -7.4693  -6.8304  -5.9421  -5.6195  -5.2252  -4.8372  -4.5956
    -3.7200  -3.5214  -2.6316  -2.0080  -1.3374  -0.2813  -0.2453   0.0336
     0.2228   0.7082   0.8036   1.5461   1.8129   1.8393   2.2213   2.4070
     2.6119   2.7225   2.8188   2.8893   3.2035

          k = 0.0625 0.4375 0.0000 ( 42516 PWs)   bands (ev):

    -7.4091  -7.0104  -6.3733  -6.2832  -5.8872  -5.4875  -5.2548  -4.3858
    -4.3753  -3.2817  -3.0739  -1.9801  -1.5655  -0.4890   0.1446   0.1857
     0.5428   1.1340   1.2261   1.2308   1.2674   1.5966   1.9663   2.1963
     2.2909   2.7618   3.0293   3.0357   3.1472

          k = 0.0625-0.5000 0.0000 ( 42534 PWs)   bands (ev):

    -6.8802  -6.8801  -6.4827  -6.4827  -5.8478  -5.8477  -4.9649  -4.9649
    -3.8670  -3.8669  -2.5596  -2.5596  -1.0580  -1.0579   0.5595   0.5595
     0.7906   0.7906   1.0359   1.0359   1.6358   1.6358   1.7197   1.7197
     2.4790   2.4790   3.1891   3.1891   3.5189

          k = 0.1250 0.1250 0.0000 ( 42471 PWs)   bands (ev):

    -8.9009  -8.4986  -7.8556  -6.9616  -5.8498  -4.5257  -3.0023  -2.2495
    -2.2495  -1.8666  -1.8666  -1.2568  -1.2568  -1.2286  -0.3960  -0.3960
    -0.1539   0.6697   0.6697   1.9140   1.9140   2.2538   2.3138   2.3138
     2.6655   2.6655   3.3048   3.3048   3.4359

          k = 0.1250 0.1875 0.0000 ( 42496 PWs)   bands (ev):

    -8.7225  -8.3206  -7.6783  -6.7853  -5.6747  -4.3520  -3.1461  -2.8303
    -2.7594  -2.1437  -2.0803  -1.6965  -1.3056  -1.0580  -1.0571  -0.2966
    -0.1328   0.0114   0.8287   1.0741   2.0769   2.3926   2.4665   2.4915
     2.9482   3.3155   3.4694   3.4920   3.5743

          k = 0.1250 0.2500 0.0000 ( 42507 PWs)   bands (ev):

    -8.4731  -8.0718  -7.4305  -6.5389  -5.4299  -4.1092  -3.9955  -3.6058
    -2.9840  -2.5899  -2.1216  -1.8426  -1.4689  -1.0333  -0.8457  -0.8202
     0.0163   0.2425   0.2495   1.0721   1.6982   2.3215   2.3474   2.6663
     2.7978   2.8048   3.1298   3.4128   3.4326

          k = 0.1250 0.3125 0.0000 ( 42535 PWs)   bands (ev):

    -8.1531  -7.7525  -7.1125  -6.2226  -5.1158  -4.7865  -4.3945  -3.7977
    -3.7687  -2.8988  -2.2816  -1.8213  -1.5410  -1.1498  -0.6188  -0.5166
    -0.4394   0.3128   0.5392   0.9618   1.3666   1.6618   2.0516   2.6062
     2.6277   2.6515   3.0142   3.1185   3.4189

          k = 0.1250 0.3750 0.0000 ( 42509 PWs)   bands (ev):

    -7.7629  -7.3633  -6.7248  -5.8370  -5.5149  -5.1208  -4.7329  -4.4917
    -3.6169  -3.4181  -2.5299  -1.9062  -1.2610  -1.1452  -0.7887  -0.1610
    -0.1520   0.2661   0.6859   0.9006   0.9887   1.3612   1.6996   1.9653
     2.0341   2.8110   2.8612   3.1572   3.3352

          k = 0.1250 0.4375 0.0000 ( 42465 PWs)   bands (ev):

    -7.3031  -6.9046  -6.2680  -6.1781  -5.7823  -5.3828  -5.1503  -4.2819
    -4.2715  -3.1789  -2.9710  -1.8796  -1.4649  -0.7329  -0.4686  -0.2509
     0.1842   0.2702   0.4617   0.7326   1.1142   1.3237   1.3373   1.3666
     2.1879   2.1882   2.3721   3.2216   3.4591

          k = 0.1250-0.5000 0.0000 ( 42510 PWs)   bands (ev):

    -6.7746  -6.7745  -6.3773  -6.3773  -5.7429  -5.7428  -4.8606  -4.8606
    -3.7635  -3.7635  -2.4575  -2.4575  -0.9611  -0.9611  -0.2403  -0.2403
     0.1707   0.1707   0.7541   0.7541   0.8378   0.8379   1.5908   1.5908
     1.8476   1.8476   2.6738   2.6738   3.9405

          k = 0.1875 0.1875 0.0000 ( 42457 PWs)   bands (ev):

    -8.5444  -8.1428  -7.5013  -6.6092  -5.4998  -4.1785  -2.9755  -2.9755
    -2.6586  -2.5897  -2.5897  -1.9751  -1.9751  -1.1056  -1.1056  -0.8885
    -0.0317  -0.0317   0.1763   1.2345   1.2345   2.2632   2.6913   2.6913
     2.7496   2.7546   3.3667   3.6405   3.6405

          k = 0.1875 0.2500 0.0000 ( 42501 PWs)   bands (ev):

    -8.2953  -7.8943  -7.2537  -6.3631  -5.2554  -3.9361  -3.8233  -3.4343
    -2.8150  -2.7366  -2.4187  -2.3500  -1.9718  -1.7051  -0.9447  -0.7860
    -0.6527   0.1902   0.4068   0.4289   1.4486   1.5524   1.9134   1.9449
     2.5456   2.8963   2.8966   3.3940   3.5777

          k = 0.1875 0.3125 0.0000 ( 42504 PWs)   bands (ev):

    -7.9756  -7.5755  -6.9361  -6.0472  -4.9417  -4.6132  -4.2217  -3.6251
    -3.5970  -2.7304  -2.4291  -2.1112  -2.0537  -1.6350  -1.4246  -0.5583
    -0.3555  -0.3473   0.5049   0.7020   0.8170   1.1173   1.1907   1.7900
     1.7967   2.6450   2.7832   3.1594   3.3346

          k = 0.1875 0.3750 0.0000 ( 42521 PWs)   bands (ev):

    -7.5859  -7.1867  -6.5489  -5.6621  -5.3406  -4.9471  -4.5593  -4.3188
    -3.4454  -3.2460  -2.3635  -2.0576  -1.7371  -1.6635  -1.1398  -0.9649
    -0.1933  -0.0780   0.2164   0.4353   0.4955   0.8663   1.0590   1.1026
     1.9571   2.1332   2.1712   2.9917   3.1889

          k = 0.1875 0.4375 0.0000 ( 42480 PWs)   bands (ev):

    -7.1267  -6.7286  -6.0927  -6.0030  -5.6077  -5.2084  -4.9765  -4.1089
    -4.0988  -3.0082  -2.7999  -1.7306  -1.5954  -1.2997  -1.2330  -0.6020
    -0.5493  -0.2013  -0.1346   0.2501   0.4405   0.5179   1.2603   1.2843
     1.5257   1.5992   2.3792   2.4095   2.7304

          k = 0.1875-0.5000 0.0000 ( 42482 PWs)   bands (ev):

    -6.5987  -6.5987  -6.2020  -6.2019  -5.5682  -5.5682  -4.6870  -4.6870
    -3.5914  -3.5913  -2.2882  -2.2882  -1.1100  -1.1100  -0.8624  -0.8624
    -0.6354  -0.6354  -0.1015  -0.1015   0.7463   0.7463   0.9731   0.9731
     1.8273   1.8273   1.9782   1.9783   3.1044

          k = 0.2500 0.2500 0.0000 ( 42565 PWs)   bands (ev):

    -8.0466  -7.6463  -7.0067  -6.1173  -5.0113  -3.6942  -3.5828  -3.5828
    -3.1950  -3.1950  -2.5770  -2.5770  -2.1796  -1.7021  -1.7021  -0.6246
    -0.6246  -0.4234   0.6358   0.6498   0.6498   0.7573   1.1313   1.7378
     2.1233   2.1233   2.5870   3.0972   3.6593

          k = 0.2500 0.3125 0.0000 ( 42540 PWs)   bands (ev):

    -7.7275  -7.3279  -6.6896  -5.8020  -4.6982  -4.3710  -3.9804  -3.3838
    -3.3583  -3.2740  -2.8854  -2.5105  -2.2381  -1.8735  -1.4703  -1.3248
    -0.3366  -0.2103  -0.0987   0.0895   0.3720   0.9266   0.9281   0.9801
     1.3963   1.8361   2.3857   2.8712   3.1605

          k = 0.2500 0.3750 0.0000 ( 42487 PWs)   bands (ev):

    -7.3384  -6.9398  -6.3030  -5.4176  -5.0970  -4.7042  -4.3166  -4.0772
    -3.2075  -3.0058  -2.8965  -2.5195  -2.1077  -1.8872  -1.5034  -1.0192
    -0.8177  -0.7407  -0.3250   0.0495   0.2451   0.3234   0.6538   1.0939
     1.3309   1.3408   2.1945   2.3368   2.9014

          k = 0.2500 0.4375 0.0000 ( 42519 PWs)   bands (ev):

    -6.8800  -6.4825  -5.8476  -5.7582  -5.3636  -4.9648  -4.7335  -3.8672
    -3.8576  -2.7723  -2.5615  -2.4552  -2.0597  -1.5353  -1.3692  -1.3691
    -1.1272  -0.8994  -0.5852  -0.3583   0.0348   0.4785   0.4918   0.7061
     1.5766   1.7146   1.7496   1.7818   2.7984

          k = 0.2500-0.5000 0.0000 ( 42464 PWs)   bands (ev):

    -6.3529  -6.3529  -5.9568  -5.9568  -5.3241  -5.3241  -4.4444  -4.4444
    -3.3512  -3.3511  -2.0685  -2.0685  -1.9252  -1.9252  -1.5596  -1.5596
    -0.9278  -0.9277  -0.5385  -0.5385  -0.0720  -0.0720   0.9364   0.9364
     1.2743   1.2743   2.0825   2.0825   2.4148

          k = 0.3125 0.3125 0.0000 ( 42539 PWs)   bands (ev):

    -7.4090  -7.0103  -6.3732  -5.4874  -4.3859  -4.0604  -4.0604  -3.6711
    -3.6711  -3.0745  -3.0504  -3.0504  -2.1722  -2.1722  -1.5714  -1.0929
    -1.0929  -0.8052  -0.3893   0.1791   0.1873   0.1873   0.2582   1.0298
     1.2658   1.6680   1.6680   2.1320   3.3866

          k = 0.3125 0.3750 0.0000 ( 42567 PWs)   bands (ev):

    -7.0208  -6.6230  -5.9875  -5.1039  -4.7845  -4.3927  -4.0053  -3.7686
    -3.6815  -3.2916  -2.9172  -2.6984  -2.6431  -1.8668  -1.7354  -1.5003
    -1.2601  -1.0330  -0.7375  -0.4984  -0.4885   0.3627   0.5320   0.5717
     1.0020   1.4493   1.5825   1.9949   2.7314

          k = 0.3125 0.4375 0.0000 ( 42562 PWs)   bands (ev):

    -6.5634  -6.1667  -5.5331  -5.4441  -5.0504  -4.6522  -4.4219  -3.5575
    -3.5499  -3.2342  -2.8558  -2.4475  -2.2719  -2.2216  -2.1252  -1.7578
    -1.3530  -1.1562  -1.1259  -0.7419  -0.2805  -0.2680   0.3197   0.7396
     1.0148   1.0769   1.8852   2.0086   2.2227

          k = 0.3125-0.5000 0.0000 ( 42548 PWs)   bands (ev):

    -6.0375  -6.0375  -5.6422  -5.6422  -5.0109  -5.0109  -4.1334  -4.1334
    -3.0458  -3.0457  -2.7233  -2.7233  -2.3270  -2.3270  -1.8003  -1.8002
    -1.6421  -1.6421  -0.8502  -0.8501  -0.2339  -0.2339   0.2163   0.2163
     1.4901   1.4901   1.5176   1.5176   2.5365

          k = 0.3750 0.3750 0.0000 ( 42600 PWs)   bands (ev):

    -6.6336  -6.2368  -5.6029  -4.7216  -4.4037  -4.4037  -4.0134  -4.0134
    -3.6264  -3.3909  -3.3909  -2.5106  -2.5106  -2.3398  -2.1922  -1.8242
    -1.4303  -1.4303  -1.1923  -0.8098  -0.3337  -0.1460  -0.1460   0.6737
     1.0108   1.3390   1.3390   1.8193   2.1583

          k = 0.3750 0.4375 0.0000 ( 42534 PWs)   bands (ev):

    -6.1774  -5.7817  -5.1498  -5.0613  -4.6687  -4.2715  -4.0433  -3.9548
    -3.5641  -3.1894  -3.1828  -2.9151  -2.8580  -2.4614  -2.1320  -2.0117
    -1.9330  -1.7795  -1.0068  -0.9835  -0.7664  -0.3687   0.0843   0.2658
     0.7372   1.3594   1.3847   1.7320   2.4052

          k = 0.3750-0.5000 0.0000 ( 42602 PWs)   bands (ev):

    -5.6530  -5.6530  -5.2587  -5.2587  -4.6293  -4.6293  -3.7560  -3.7560
    -3.4379  -3.4379  -3.0587  -3.0586  -2.6522  -2.6522  -2.4236  -2.4236
    -1.5547  -1.5547  -1.3601  -1.3601  -0.4799  -0.4799   0.1183   0.1183
     0.8177   0.8177   1.8100   1.8100   2.3881

          k = 0.4375 0.4375 0.0000 ( 42608 PWs)   bands (ev):

    -5.7227  -5.3282  -4.6985  -4.6104  -4.6104  -4.2195  -4.2195  -3.8248
    -3.5959  -3.5959  -3.5060  -3.1264  -2.7205  -2.7145  -2.7145  -2.4911
    -1.6336  -1.6336  -1.6221  -1.4282  -0.5466  -0.3469  -0.3469   0.0510
     0.7518   1.1404   1.1404   1.7436   2.3232

          k = 0.4375-0.5000 0.0000 ( 42578 PWs)   bands (ev):

    -5.2000  -5.2000  -4.8071  -4.8071  -4.1810  -4.1810  -4.0919  -4.0919
    -3.7007  -3.7007  -3.3258  -3.3258  -3.0517  -3.0517  -2.2647  -2.2647
    -2.1506  -2.1506  -1.1420  -1.1420  -0.9008  -0.9008   0.1321   0.1321
     0.6043   0.6043   1.6000   1.6000   2.3883

          k =-0.5000-0.5000 0.0000 ( 42664 PWs)   bands (ev):

    -4.6794  -4.6794  -4.6794  -4.6794  -4.2883  -4.2883  -4.2883  -4.2883
    -3.6644  -3.6644  -3.6644  -3.6643  -2.7826  -2.7826  -2.7826  -2.7826
    -1.7015  -1.7015  -1.7015  -1.7015  -0.4141  -0.4141  -0.4141  -0.4141
     1.0741   1.0741   1.0741   1.0741   2.8038

     the Fermi energy is     1.9350 ev

!    total energy              =    -199.32399718 Ry
     Harris-Foulkes estimate   =    -199.32399718 Ry
     estimated scf accuracy    <          5.3E-09 Ry

     The total energy is the sum of the following terms:

     one-electron contribution =   -1220.65115461 Ry
     hartree contribution      =     623.59713722 Ry
     xc contribution           =    -160.13925028 Ry
     ewald contribution        =     557.86938981 Ry
     smearing contrib. (-TS)   =      -0.00011931 Ry

     convergence has been achieved in  13 iterations

     Forces acting on atoms (Ry/au):


     negative rho (up, down):  6.160E-06 0.000E+00
     atom    1 type  1   force =     0.00000000    0.00000000   -0.00194059
     atom    2 type  1   force =     0.00000000    0.00000000   -0.00194027
     atom    3 type  1   force =     0.00000000    0.00000000    0.00157542
     atom    4 type  1   force =     0.00000000    0.00000000    0.00157542
     atom    5 type  1   force =     0.00000000    0.00000000    0.00130914
     atom    6 type  1   force =     0.00000000    0.00000000    0.00130801
     atom    7 type  1   force =     0.00000000    0.00000000    0.00101315
     atom    8 type  1   force =     0.00000000    0.00000000    0.00101315
     atom    9 type  1   force =     0.00000000    0.00000000   -0.00101215
     atom   10 type  1   force =     0.00000000    0.00000000   -0.00101412
     atom   11 type  1   force =     0.00000000    0.00000000   -0.00130862
     atom   12 type  1   force =     0.00000000    0.00000000   -0.00130862
     atom   13 type  1   force =     0.00000000    0.00000000   -0.00157573
     atom   14 type  1   force =     0.00000000    0.00000000   -0.00157482
     atom   15 type  1   force =     0.00000000    0.00000000    0.00194031
     atom   16 type  1   force =     0.00000000    0.00000000    0.00194031

     Total force =     0.005995     Total SCF correction =     0.000135


     entering subroutine stress ...


     negative rho (up, down):  6.160E-06 0.000E+00
          total   stress  (Ry/bohr**3)                   (kbar)     P=   -5.28
  -0.00005461   0.00000000   0.00000000         -8.03      0.00      0.00
   0.00000000  -0.00005461   0.00000000          0.00     -8.03      0.00
   0.00000000   0.00000000   0.00000148          0.00      0.00      0.22


     number of scf cycles    =   3
     number of bfgs steps    =   2

     energy   old            =    -199.3239441365 Ry
     energy   new            =    -199.3239971752 Ry

     CASE: energy  _new < energy  _old

     new trust radius        =       0.0040738007 bohr
     new conv_thr            =       0.0000000100 Ry


ATOMIC_POSITIONS (crystal)
Al       0.000000000   0.000000000  -0.000152180
Al       0.500000000   0.500000000  -0.000152159
Al       0.500000000   0.000000000   0.062629584
Al       0.000000000   0.500000000   0.062629584
Al       0.000000000   0.000000000   0.125088203
Al       0.500000000   0.500000000   0.125088117
Al       0.500000000   0.000000000   0.187580927
Al       0.000000000   0.500000000   0.187580927
[...]
     Davidson diagonalization with overlap
     ethr =  1.14E-10,  avg # of iterations =  4.4

     negative rho (up, down):  4.461E-06 0.000E+00

     total cpu time spent up to now is    12618.2 secs

     total energy              =    -199.32421088 Ry
     Harris-Foulkes estimate   =    -199.32421090 Ry
     estimated scf accuracy    <       0.00000007 Ry

     iteration #  6     ecut=    80.00 Ry     beta=0.30
     Davidson diagonalization with overlap
     ethr =  1.14E-10,  avg # of iterations =  3.2

     negative rho (up, down):  4.408E-06 0.000E+00

     total cpu time spent up to now is    12805.0 secs

     total energy              =    -199.32421079 Ry
     Harris-Foulkes estimate   =    -199.32421093 Ry
     estimated scf accuracy    <       0.00000082 Ry

     iteration #  7     ecut=    80.00 Ry     beta=0.30
     Davidson diagonalization with overlap
     ethr =  1.14E-10,  avg # of iterations =  4.0

     negative rho (up, down):  4.458E-06 0.000E+00

     total cpu time spent up to now is    13015.7 secs

     total energy              =    -199.32421083 Ry
     Harris-Foulkes estimate   =    -199.32421096 Ry
     estimated scf accuracy    <       0.00000156 Ry

     iteration #  8     ecut=    80.00 Ry     beta=0.30
     Davidson diagonalization with overlap
     ethr =  1.14E-10,  avg # of iterations =  3.3

     negative rho (up, down):  5.998E-06 0.000E+00

     total cpu time spent up to now is    13202.6 secs

     End of self-consistent calculation

          k = 0.0000 0.0000 0.0000 ( 42481 PWs)   bands (ev):

    -9.1918  -8.7625  -8.1170  -7.2207  -6.1239  -4.8056  -3.2861  -1.5114
    -0.9167  -0.9167  -0.5173  -0.5173  -0.4273   0.0784   0.0784   0.4493
     0.4493   0.8589   0.8589   0.9113   0.9113   1.4507   1.4507   1.9313
     1.9313   1.9965   2.4091   2.4091   3.1719

          k = 0.0000 0.0625 0.0000 ( 42511 PWs)   bands (ev):

    -9.1561  -8.7268  -8.0815  -7.1854  -6.0888  -4.7708  -3.2516  -1.4871
    -1.4770  -1.0814  -0.8839  -0.4845  -0.4764  -0.3941   0.1112   0.3598
     0.4867   0.8830   0.9441   1.0821   1.4132   1.4439   1.5592   1.9641
     2.0123   2.0294   2.5375   2.6755   2.9333

          k = 0.0000 0.1250 0.0000 ( 42485 PWs)   bands (ev):

    -9.0488  -8.6198  -7.9749  -7.0794  -5.9835  -4.6663  -3.1481  -2.3902
    -1.9794  -1.3742  -1.3657  -0.7854  -0.5143  -0.3860  -0.2948   0.2096
     0.5063   0.5841   1.0345   1.0425   1.5464   1.9174   2.0625   2.1279
     2.1634   2.4847   2.5552   3.2099   3.3027

          k = 0.0000 0.1875 0.0000 ( 42492 PWs)   bands (ev):

    -8.8702  -8.4417  -7.7975  -6.9029  -5.8082  -4.4924  -3.2882  -2.9758
    -2.8740  -2.2544  -1.3939  -1.2031  -0.6214  -0.3465  -0.2219  -0.1292
     0.3737   0.7164   0.9496   1.1762   1.2066   1.8677   2.2264   2.2904
     2.4196   2.7065   3.3657   3.4664   3.5701

          k = 0.0000 0.2500 0.0000 ( 42520 PWs)   bands (ev):

    -8.6206  -8.1926  -7.5494  -6.6562  -5.5632  -4.2493  -4.1386  -3.7218
    -3.0975  -2.7350  -2.2305  -1.1721  -0.9642  -0.3916   0.0079   0.0912
     0.1024   0.6035   1.0024   1.2972   1.4363   1.7387   2.0914   2.4559
     2.5133   2.9361   3.3033   3.6954   3.8131

          k = 0.0000 0.3125 0.0000 ( 42514 PWs)   bands (ev):

    -8.3003  -7.8731  -7.2311  -6.3396  -5.2487  -4.9305  -4.5115  -3.9374
    -3.8835  -3.0111  -2.4261  -1.9452  -0.6667  -0.6583  -0.0962   0.3033
     0.3998   0.7819   0.8990   1.2819   1.7317   1.8035   2.3819   2.6237
     2.7509   2.7853   3.0574   3.2018   3.4571

          k = 0.0000 0.3750 0.0000 ( 42504 PWs)   bands (ev):

    -7.9097  -7.4834  -6.8430  -5.9536  -5.6595  -5.2387  -4.8654  -4.6075
    -3.7307  -3.5573  -2.6587  -2.0498  -1.3713  -0.2864   0.1050   0.2649
     0.6645   0.7628   1.2601   1.5184   2.0550   2.0927   2.1526   2.3674
     2.7671   2.7689   2.8421   3.0555   3.1115

          k = 0.0000 0.4375 0.0000 ( 42512 PWs)   bands (ev):

    -7.4495  -7.0243  -6.3858  -6.3234  -5.9009  -5.4988  -5.2669  -4.4138
    -4.3862  -3.3092  -3.1095  -2.0150  -1.6069  -0.5266   0.1491   0.6918
     1.0915   1.1768   1.1908   1.6870   1.7430   2.1428   2.1967   2.2365
     2.5194   2.5804   2.7380   3.0393   3.1989

          k = 0.0000-0.5000 0.0000 ( 42494 PWs)   bands (ev):

    -6.9204  -6.9204  -6.4965  -6.4965  -5.8601  -5.8601  -4.9760  -4.9760
    -3.8947  -3.8947  -2.5950  -2.5950  -1.0985  -1.0985   0.6436   0.6436
     1.1845   1.1845   1.5842   1.5842   1.6828   1.6828   2.1796   2.1796
     2.6291   2.6291   3.0117   3.0117   3.0700

          k = 0.0625 0.0625 0.0000 ( 42495 PWs)   bands (ev):

    -9.1203  -8.6911  -8.0460  -7.1501  -6.0537  -4.7359  -3.2171  -1.4538
    -1.4538  -1.4428  -1.0483  -1.0483  -0.4441  -0.4441  -0.3610   0.4025
     0.4025   1.1139   1.1139   1.3881   1.3881   1.5735   1.5735   2.0622
     2.1077   2.1077   2.7184   2.7184   3.0435

          k = 0.0625 0.1250 0.0000 ( 42490 PWs)   bands (ev):

    -9.0131  -8.5842  -7.9394  -7.0441  -5.9484  -4.6315  -3.1137  -2.3563
    -1.9457  -1.3536  -1.3400  -1.3331  -0.9478  -0.5017  -0.3163  -0.2617
     0.4650   0.6064   1.2082   1.5329   1.6338   1.8044   2.1596   2.1948
     2.3022   2.6092   2.7592   3.0064   3.3092

          k = 0.0625 0.1875 0.0000 ( 42527 PWs)   bands (ev):

    -8.8346  -8.4061  -7.7620  -6.8676  -5.7732  -4.4577  -3.2540  -2.9414
    -2.8399  -2.2207  -1.3623  -1.1861  -1.1690  -0.7864  -0.3035  -0.1721
    -0.0962   0.6791   0.9459   1.3981   1.7079   1.7705   2.3189   2.4518
     2.4756   2.9547   3.2721   3.4128   3.7595

          k = 0.0625 0.2500 0.0000 ( 42499 PWs)   bands (ev):

    -8.5850  -8.1571  -7.5140  -6.6210  -5.5282  -4.2146  -4.1041  -3.6874
    -3.0634  -2.7007  -2.1969  -1.1421  -0.9541  -0.9304  -0.5412   0.0176
     0.1353   0.1843   0.9085   1.5542   1.6136   1.9375   2.1292   2.5250
     2.6828   3.1814   3.3388   3.3682   3.5134

          k = 0.0625 0.3125 0.0000 ( 42459 PWs)   bands (ev):

    -8.2647  -7.8376  -7.1958  -6.3045  -5.2138  -4.8958  -4.4769  -3.9028
    -3.8491  -2.9770  -2.3919  -1.9119  -0.6873  -0.6249  -0.5993  -0.2482
     0.3696   0.4326   0.8418   1.2110   1.8712   2.2253   2.3860   2.4671
     2.6815   2.9279   2.9293   2.9942   3.4046

          k = 0.0625 0.3750 0.0000 ( 42493 PWs)   bands (ev):

    -7.8742  -7.4480  -6.8078  -5.9186  -5.6246  -5.2039  -4.8306  -4.5728
    -3.6962  -3.5228  -2.6247  -2.0158  -1.3387  -0.2866  -0.2542   0.0448
     0.2261   0.7318   0.7953   1.5718   1.8052   1.8334   2.2437   2.4018
     2.6191   2.7437   2.8425   2.8826   3.2027

          k = 0.0625 0.4375 0.0000 ( 42516 PWs)   bands (ev):

    -7.4142  -6.9891  -6.3506  -6.2883  -5.8659  -5.4639  -5.2321  -4.3791
    -4.3516  -3.2749  -3.0752  -1.9813  -1.5732  -0.4963   0.1390   0.1769
     0.5644   1.1558   1.2204   1.2226   1.2609   1.6188   1.9907   2.2203
     2.2848   2.7562   3.0370   3.0617   3.1688

          k = 0.0625-0.5000 0.0000 ( 42534 PWs)   bands (ev):

    -6.8852  -6.8852  -6.4614  -6.4614  -5.8251  -5.8251  -4.9413  -4.9413
    -3.8602  -3.8602  -2.5609  -2.5609  -1.0655  -1.0655   0.5526   0.5526
     0.7833   0.7833   1.0579   1.0579   1.6598   1.6598   1.7119   1.7119
     2.5047   2.5048   3.1831   3.1831   3.5266

          k = 0.1250 0.1250 0.0000 ( 42471 PWs)   bands (ev):

    -8.9059  -8.4773  -7.8330  -6.9382  -5.8433  -4.5272  -3.0103  -2.2548
    -2.2548  -1.8450  -1.8450  -1.2375  -1.2342  -1.2342  -0.3705  -0.3705
    -0.1624   0.6766   0.6766   1.9119   1.9119   2.2526   2.3108   2.3108
     2.6863   2.6863   3.3237   3.3237   3.4274

          k = 0.1250 0.1875 0.0000 ( 42496 PWs)   bands (ev):

    -8.7276  -8.2993  -7.6557  -6.7619  -5.6681  -4.3535  -3.1514  -2.8382
    -2.7378  -2.1204  -2.0856  -1.6755  -1.2833  -1.0669  -1.0317  -0.2766
    -0.1206   0.0029   0.8342   1.0748   2.0758   2.3908   2.4616   2.4891
     2.9640   3.3108   3.4759   3.4967   3.5039

          k = 0.1250 0.2500 0.0000 ( 42507 PWs)   bands (ev):

    -8.4782  -8.0505  -7.4079  -6.5154  -5.4233  -4.1106  -4.0007  -3.5843
    -2.9611  -2.5978  -2.0975  -1.8485  -1.4486  -1.0243  -0.8291  -0.8218
     0.0405   0.2341   0.2479   1.0799   1.6913   2.3159   2.3464   2.6610
     2.8044   2.8202   3.1506   3.4277   3.4370

          k = 0.1250 0.3125 0.0000 ( 42535 PWs)   bands (ev):

    -8.1581  -7.7312  -7.0899  -6.1991  -5.1092  -4.7917  -4.3731  -3.7991
    -3.7458  -2.8749  -2.2894  -1.8145  -1.5469  -1.1276  -0.6045  -0.5255
    -0.4311   0.3369   0.5308   0.9549   1.3741   1.6560   2.0738   2.5993
     2.6270   2.6747   3.0150   3.1130   3.4403

          k = 0.1250 0.3750 0.0000 ( 42509 PWs)   bands (ev):

    -7.7679  -7.3420  -6.7022  -5.8135  -5.5200  -5.0995  -4.7263  -4.4689
    -3.5931  -3.4194  -2.5231  -1.9139  -1.2662  -1.1461  -0.7669  -0.1609
    -0.1381   0.2581   0.7111   0.8923   0.9831   1.3832   1.7050   1.9890
     2.0284   2.8364   2.8587   3.1514   3.3355

          k = 0.1250 0.4375 0.0000 ( 42465 PWs)   bands (ev):

    -7.3082  -6.8833  -6.2453  -6.1832  -5.7610  -5.3592  -5.1276  -4.2752
    -4.2478  -3.1721  -2.9723  -1.8809  -1.4725  -0.7381  -0.4637  -0.2418
     0.1767   0.2934   0.4550   0.7544   1.1393   1.3158   1.3586   1.3609
     2.1954   2.2134   2.3651   3.2293   3.4574

          k = 0.1250-0.5000 0.0000 ( 42510 PWs)   bands (ev):

    -6.7796  -6.7796  -6.3560  -6.3560  -5.7202  -5.7202  -4.8370  -4.8370
    -3.7567  -3.7567  -2.4588  -2.4588  -0.9684  -0.9684  -0.2457  -0.2457
     0.1921   0.1921   0.7674   0.7674   0.8395   0.8395   1.6121   1.6121
     1.8438   1.8438   2.6815   2.6815   3.9391

          k = 0.1875 0.1875 0.0000 ( 42457 PWs)   bands (ev):

    -8.5494  -8.1216  -7.4786  -6.5858  -5.4932  -4.1800  -2.9807  -2.9807
    -2.6665  -2.5681  -2.5681  -1.9528  -1.9528  -1.0803  -1.0803  -0.8974
    -0.0250  -0.0250   0.1679   1.2338   1.2338   2.2576   2.6842   2.6842
     2.7542   2.7721   3.3909   3.6348   3.6348

          k = 0.1875 0.2500 0.0000 ( 42501 PWs)   bands (ev):

    -8.3003  -7.8731  -7.2311  -6.3396  -5.2487  -3.9375  -3.8285  -3.4129
    -2.7918  -2.7419  -2.4265  -2.3292  -1.9497  -1.6798  -0.9256  -0.7733
    -0.6616   0.1949   0.3984   0.4304   1.4474   1.5466   1.9064   1.9671
     2.5686   2.8898   2.8976   3.4194   3.5688

          k = 0.1875 0.3125 0.0000 ( 42504 PWs)   bands (ev):

    -7.9806  -7.5542  -6.9135  -6.0237  -4.9350  -4.6184  -4.2003  -3.6265
    -3.5741  -2.7065  -2.4349  -2.1189  -2.0337  -1.6259  -1.4009  -0.5345
    -0.3643  -0.3490   0.5128   0.6937   0.8114   1.1100   1.2127   1.7892
     1.8203   2.6703   2.7778   3.1600   3.3234

          k = 0.1875 0.3750 0.0000 ( 42521 PWs)   bands (ev):

    -7.5909  -7.1654  -6.5263  -5.6386  -5.3457  -4.9257  -4.5526  -4.2960
    -3.4217  -3.2474  -2.3568  -2.0634  -1.7448  -1.6415  -1.1274  -0.9549
    -0.1697  -0.0857   0.2099   0.4284   0.5172   0.8738   1.0511   1.1261
     1.9820   2.1327   2.1640   2.9994   3.1816

          k = 0.1875 0.4375 0.0000 ( 42480 PWs)   bands (ev):

    -7.1317  -6.7073  -6.0700  -6.0081  -5.5864  -5.1849  -4.9537  -4.1022
    -4.0751  -3.0014  -2.8012  -1.7352  -1.5969  -1.3070  -1.2112  -0.5793
    -0.5547  -0.2094  -0.1133   0.2752   0.4477   0.5256   1.2653   1.3040
     1.5232   1.5938   2.3869   2.4068   2.7246

          k = 0.1875-0.5000 0.0000 ( 42482 PWs)   bands (ev):

    -6.6038  -6.6038  -6.1807  -6.1806  -5.5455  -5.5455  -4.6633  -4.6633
    -3.5846  -3.5846  -2.2896  -2.2896  -1.1151  -1.1151  -0.8592  -0.8592
    -0.6247  -0.6247  -0.0785  -0.0785   0.7711   0.7711   0.9651   0.9651
     1.8347   1.8347   1.9711   1.9711   3.1028

          k = 0.2500 0.2500 0.0000 ( 42565 PWs)   bands (ev):

    -8.0516  -7.6250  -6.9840  -6.0939  -5.0047  -3.6955  -3.5880  -3.5880
    -3.1735  -3.1735  -2.5548  -2.5548  -2.1873  -1.6770  -1.6770  -0.6180
    -0.6180  -0.4323   0.6275   0.6493   0.6493   0.7517   1.1533   1.7614
     2.1160   2.1160   2.6122   3.0979   3.6666

          k = 0.2500 0.3125 0.0000 ( 42540 PWs)   bands (ev):

    -7.7325  -7.3066  -6.6670  -5.7785  -4.6916  -4.3762  -3.9590  -3.3852
    -3.3352  -3.2793  -2.8647  -2.4885  -2.2130  -1.8812  -1.4517  -1.3118
    -0.3324  -0.2181  -0.0967   0.0830   0.3936   0.9187   0.9270   1.0035
     1.3894   1.8609   2.3794   2.8789   3.1513

          k = 0.2500 0.3750 0.0000 ( 42487 PWs)   bands (ev):

    -7.3434  -6.9185  -6.2804  -5.3941  -5.1022  -4.6828  -4.3099  -4.0544
    -3.1837  -3.0072  -2.9023  -2.4996  -2.0988  -1.8636  -1.5107  -0.9955
    -0.8195  -0.7461  -0.3037   0.0574   0.2496   0.3337   0.6465   1.1129
     1.3290   1.3401   2.2022   2.3314   2.8905

          k = 0.2500 0.4375 0.0000 ( 42519 PWs)   bands (ev):

    -6.8850  -6.4612  -5.8249  -5.7633  -5.3422  -4.9412  -4.7107  -3.8604
    -3.8339  -2.7657  -2.5630  -2.4610  -2.0377  -1.5239  -1.3742  -1.3583
    -1.1249  -0.8880  -0.5619  -0.3354   0.0281   0.4860   0.5165   0.6981
     1.5840   1.7074   1.7492   1.7745   2.7910

          k = 0.2500-0.5000 0.0000 ( 42464 PWs)   bands (ev):

    -6.3580  -6.3580  -5.9355  -5.9355  -5.3014  -5.3013  -4.4207  -4.4207
    -3.3444  -3.3444  -2.0729  -2.0729  -1.9269  -1.9269  -1.5378  -1.5378
    -0.9051  -0.9051  -0.5467  -0.5467  -0.0470  -0.0470   0.9411   0.9411
     1.2692   1.2692   2.0796   2.0796   2.4091

          k = 0.3125 0.3125 0.0000 ( 42539 PWs)   bands (ev):

    -7.4141  -6.9890  -6.3506  -5.4639  -4.3792  -4.0656  -4.0656  -3.6496
    -3.6496  -3.0759  -3.0283  -3.0283  -2.1474  -2.1474  -1.5787  -1.0864
    -1.0864  -0.8106  -0.3680   0.1830   0.1868   0.1868   0.2691   1.0485
     1.2641   1.6608   1.6608   2.1397   3.3802

          k = 0.3125 0.3750 0.0000 ( 42567 PWs)   bands (ev):

    -7.0259  -6.6017  -5.9649  -5.0804  -4.7897  -4.3713  -3.9986  -3.7456
    -3.6867  -3.2709  -2.8952  -2.6999  -2.6182  -1.8487  -1.7222  -1.5054
    -1.2581  -1.0213  -0.7336  -0.4961  -0.4656   0.3874   0.5308   0.5637
     0.9953   1.4567   1.5753   1.9887   2.7299

          k = 0.3125 0.4375 0.0000 ( 42562 PWs)   bands (ev):

    -6.5685  -6.1454  -5.5104  -5.4493  -5.0290  -4.6286  -4.3991  -3.5508
    -3.5261  -3.2399  -2.8359  -2.4388  -2.2763  -2.1981  -2.1271  -1.7361
    -1.3294  -1.1580  -1.1032  -0.7501  -0.2726  -0.2431   0.3125   0.7441
     1.0142   1.0720   1.8823   2.0032   2.2171

          k = 0.3125-0.5000 0.0000 ( 42548 PWs)   bands (ev):

    -6.0426  -6.0426  -5.6208  -5.6208  -4.9881  -4.9881  -4.1097  -4.1097
    -3.0392  -3.0392  -2.7290  -2.7290  -2.3051  -2.3050  -1.7895  -1.7894
    -1.6307  -1.6307  -0.8270  -0.8270  -0.2406  -0.2405   0.2237   0.2238
     1.4897   1.4897   1.5103   1.5104   2.5290

          k = 0.3750 0.3750 0.0000 ( 42600 PWs)   bands (ev):

    -6.6387  -6.2155  -5.5802  -4.6980  -4.4088  -4.4088  -3.9919  -3.9919
    -3.6197  -3.3688  -3.3688  -2.4858  -2.4858  -2.3441  -2.1941  -1.8025
    -1.4238  -1.4238  -1.1696  -0.8181  -0.3088  -0.1464  -0.1464   0.6782
     1.0059   1.3320   1.3320   1.8164   2.1527

          k = 0.3750 0.4375 0.0000 ( 42534 PWs)   bands (ev):

    -6.1825  -5.7604  -5.1271  -5.0664  -4.6473  -4.2479  -4.0203  -3.9600
    -3.5433  -3.1762  -3.1674  -2.8904  -2.8638  -2.4395  -2.1142  -1.9983
    -1.9225  -1.7678  -1.0032  -0.9604  -0.7639  -0.3753   0.0917   0.2646
     0.7306   1.3591   1.3774   1.7260   2.3976

          k = 0.3750-0.5000 0.0000 ( 42602 PWs)   bands (ev):

    -5.6581  -5.6581  -5.2373  -5.2373  -4.6065  -4.6065  -3.7322  -3.7322
    -3.4436  -3.4436  -3.0387  -3.0387  -2.6435  -2.6435  -2.4001  -2.4001
    -1.5311  -1.5311  -1.3619  -1.3619  -0.4720  -0.4720   0.1112   0.1112
     0.8171   0.8171   1.8046   1.8046   2.3774

          k = 0.4375 0.4375 0.0000 ( 42608 PWs)   bands (ev):

    -5.7278  -5.3069  -4.6757  -4.6155  -4.6155  -4.1980  -4.1980  -3.8010
    -3.5738  -3.5738  -3.5117  -3.1065  -2.7119  -2.6898  -2.6898  -2.4676
    -1.6272  -1.6272  -1.5986  -1.4300  -0.5387  -0.3474  -0.3474   0.0439
     0.7512   1.1335   1.1335   1.7382   2.3125

          k = 0.4375-0.5000 0.0000 ( 42578 PWs)   bands (ev):

    -5.2051  -5.2051  -4.7857  -4.7857  -4.1580  -4.1580  -4.0971  -4.0971
    -3.6800  -3.6800  -3.3038  -3.3038  -3.0270  -3.0270  -2.2471  -2.2471
    -2.1371  -2.1371  -1.1385  -1.1385  -0.8983  -0.8982   0.1310   0.1310
     0.5977   0.5977   1.5940   1.5940   2.3789

          k =-0.5000-0.5000 0.0000 ( 42664 PWs)   bands (ev):

    -4.6845  -4.6845  -4.6845  -4.6845  -4.2668  -4.2668  -4.2668  -4.2668
    -3.6423  -3.6423  -3.6423  -3.6423  -2.7580  -2.7580  -2.7580  -2.7580
    -1.6951  -1.6951  -1.6951  -1.6951  -0.4145  -0.4145  -0.4145  -0.4145
     1.0672   1.0672   1.0672   1.0672   2.7974

     the Fermi energy is     1.9398 ev

!    total energy              =    -199.32421090 Ry
     Harris-Foulkes estimate   =    -199.32421090 Ry
     estimated scf accuracy    <          3.1E-09 Ry

     The total energy is the sum of the following terms:

     one-electron contribution =   -1220.63668247 Ry
     hartree contribution      =     623.59782710 Ry
     xc contribution           =    -160.12783747 Ry
     ewald contribution        =     557.84256265 Ry
     smearing contrib. (-TS)   =      -0.00008071 Ry

     convergence has been achieved in   8 iterations

     Forces acting on atoms (Ry/au):


     negative rho (up, down):  5.998E-06 0.000E+00
     atom    1 type  1   force =     0.00000000    0.00000000    0.00022433
     atom    2 type  1   force =     0.00000000    0.00000000    0.00022444
     atom    3 type  1   force =     0.00000000    0.00000000   -0.00047841
     atom    4 type  1   force =     0.00000000    0.00000000   -0.00047841
     atom    5 type  1   force =     0.00000000    0.00000000    0.00078728
     atom    6 type  1   force =     0.00000000    0.00000000    0.00078719
     atom    7 type  1   force =     0.00000000    0.00000000   -0.00008116
     atom    8 type  1   force =     0.00000000    0.00000000   -0.00008116
     atom    9 type  1   force =     0.00000000    0.00000000    0.00008119
     atom   10 type  1   force =     0.00000000    0.00000000    0.00008112
     atom   11 type  1   force =     0.00000000    0.00000000   -0.00078724
     atom   12 type  1   force =     0.00000000    0.00000000   -0.00078724
     atom   13 type  1   force =     0.00000000    0.00000000    0.00047832
     atom   14 type  1   force =     0.00000000    0.00000000    0.00047845
     atom   15 type  1   force =     0.00000000    0.00000000   -0.00022435
     atom   16 type  1   force =     0.00000000    0.00000000   -0.00022435

     Total force =     0.001903     Total SCF correction =     0.000063


     entering subroutine stress ...


     negative rho (up, down):  5.998E-06 0.000E+00
          total   stress  (Ry/bohr**3)                   (kbar)     P=   -5.77
  -0.00005708   0.00000000   0.00000000         -8.40      0.00      0.00
   0.00000000  -0.00005708   0.00000000          0.00     -8.40      0.00
   0.00000000   0.00000000  -0.00000344          0.00      0.00     -0.51


     bfgs converged in   7 scf cycles and   6 bfgs steps
     (criteria: energy <  1.0E-04, force <  1.0E-03)

     End of BFGS Geometry Optimization

     Final energy   =    -199.3242108951 Ry
Begin final coordinates

ATOMIC_POSITIONS (crystal)
Al       0.000000000   0.000000000  -0.000459387
Al       0.500000000   0.500000000  -0.000459309
Al       0.500000000   0.000000000   0.062861022
Al       0.000000000   0.500000000   0.062861022
Al       0.000000000   0.000000000   0.125345008
Al       0.500000000   0.500000000   0.125344732
Al       0.500000000   0.000000000   0.187740401
Al       0.000000000   0.500000000   0.187740401
Al       0.000000000   0.000000000   0.249759848
Al       0.500000000   0.500000000   0.249759366
Al       0.500000000   0.000000000   0.312155135
Al       0.000000000   0.500000000   0.312155135
Al       0.000000000   0.000000000   0.374638867
Al       0.500000000   0.500000000   0.374639090
Al       0.500000000   0.000000000   0