--------------------------------------------------------------------------
[[19673,1],0]: A high-performance Open MPI point-to-point messaging module
was unable to find any relevant network interfaces:

Module: OpenFabrics (openib)
  Host: ubuntu

Another transport will be used instead, although this may result in
lower performance.
--------------------------------------------------------------------------

     Program PWSCF v.5.1 starts on 30May2020 at  4:39:32 

     This program is part of the open-source Quantum ESPRESSO suite
     for quantum simulation of materials; please cite
         "P. Giannozzi et al., J. Phys.:Condens. Matter 21 395502 (2009);
          URL http://www.quantum-espresso.org", 
     in publications or presentations arising from this work. More details at
     http://www.quantum-espresso.org/quote

     Parallel version (MPI), running on     1 processors
     Reading input from Al_100_surf_slab_7.pw.in

     Current dimensions of program PWSCF are:
     Max number of different atomic species (ntypx) = 10
     Max number of k-points (npk) =  40000
     Max angular momentum in pseudopotentials (lmaxx) =  3

     Subspace diagonalization in iterative solution of the eigenvalue problem:
     a serial algorithm will be used

     Found symmetry operation: I + ( -0.5000 -0.5000  0.0000)
     This is a supercell, fractional translations are disabled

     G-vector sticks info
     --------------------
     sticks:   dense  smooth     PW     G-vecs:    dense   smooth      PW
     Sum         681     681    421               149919   149919   70985



     bravais-lattice index     =            6
     lattice parameter (alat)  =       7.6050  a.u.
     unit-cell volume          =    4838.2727 (a.u.)^3
     number of atoms/cell      =           28
     number of atomic types    =            1
     number of electrons       =        84.00
     number of Kohn-Sham states=           50
     kinetic-energy cutoff     =      80.0000  Ry
     charge density cutoff     =     150.0000  Ry
     convergence threshold     =      1.0E-06
     mixing beta               =       0.3000
     number of iterations used =            8  local-TF  mixing
     Exchange-correlation      =  SLA  PW   PBE  PBE ( 1  4  3  4 0)
     nstep                     =           50


     celldm(1)=   7.605000  celldm(2)=   0.000000  celldm(3)=  11.000000
     celldm(4)=   0.000000  celldm(5)=   0.000000  celldm(6)=   0.000000

     crystal axes: (cart. coord. in units of alat)
               a(1) = (   1.000000   0.000000   0.000000 )  
               a(2) = (   0.000000   1.000000   0.000000 )  
               a(3) = (   0.000000   0.000000  11.000000 )  

     reciprocal axes: (cart. coord. in units 2 pi/alat)
               b(1) = (  1.000000  0.000000  0.000000 )  
               b(2) = (  0.000000  1.000000  0.000000 )  
               b(3) = (  0.000000  0.000000  0.090909 )  


     PseudoPot. # 1 for Al read from file:
     ./Al.pbe-n-van.UPF
     MD5 check sum: b11ded24487aef5bc42d5c7a2e22a7b6
     Pseudo is Ultrasoft + core correction, Zval =  3.0
     Generated by new atomic code, or converted to UPF format
     Using radial grid of  893 points,  2 beta functions with: 
                l(1) =   0
                l(2) =   1
     Q(r) pseudized with  8 coefficients,  rinner =    0.900   0.900   0.900


     atomic species   valence    mass     pseudopotential
        Al             3.00    26.98000     Al( 1.00)

      8 Sym. Ops. (no inversion) found



   Cartesian axes

     site n.     atom                  positions (alat units)
         1           Al  tau(   1) = (   0.0000000   0.0000000   0.0000000  )
         2           Al  tau(   2) = (   0.5000000   0.5000000   0.0000000  )
         3           Al  tau(   3) = (   0.5000000   0.0000000   0.5000000  )
         4           Al  tau(   4) = (   0.0000000   0.5000000   0.5000000  )
         5           Al  tau(   5) = (   0.0000000   0.0000000   1.0000000  )
         6           Al  tau(   6) = (   0.5000000   0.5000000   1.0000000  )
         7           Al  tau(   7) = (   0.5000000   0.0000000   1.5000000  )
         8           Al  tau(   8) = (   0.0000000   0.5000000   1.5000000  )
         9           Al  tau(   9) = (   0.0000000   0.0000000   2.0000000  )
        10           Al  tau(  10) = (   0.5000000   0.5000000   2.0000000  )
        11           Al  tau(  11) = (   0.5000000   0.0000000   2.5000000  )
        12           Al  tau(  12) = (   0.0000000   0.5000000   2.5000000  )
        13           Al  tau(  13) = (   0.0000000   0.0000000   3.0000000  )
        14           Al  tau(  14) = (   0.5000000   0.5000000   3.0000000  )
        15           Al  tau(  15) = (   0.5000000   0.0000000   3.5000000  )
        16           Al  tau(  16) = (   0.0000000   0.5000000   3.5000000  )
        17           Al  tau(  17) = (   0.0000000   0.0000000   4.0000000  )
        18           Al  tau(  18) = (   0.5000000   0.5000000   4.0000000  )
        19           Al  tau(  19) = (   0.5000000   0.0000000   4.5000000  )
        20           Al  tau(  20) = (   0.0000000   0.5000000   4.5000000  )
        21           Al  tau(  21) = (   0.0000000   0.0000000   5.0000000  )
        22           Al  tau(  22) = (   0.5000000   0.5000000   5.0000000  )
        23           Al  tau(  23) = (   0.5000000   0.0000000   5.5000000  )
        24           Al  tau(  24) = (   0.0000000   0.5000000   5.5000000  )
        25           Al  tau(  25) = (   0.0000000   0.0000000   6.0000000  )
        26           Al  tau(  26) = (   0.5000000   0.5000000   6.0000000  )
        27           Al  tau(  27) = (   0.5000000   0.0000000   6.5000000  )
        28           Al  tau(  28) = (   0.0000000   0.5000000   6.5000000  )

     number of k points=    45  Marzari-Vanderbilt smearing, width (Ry)=  0.0250
                       cart. coord. in units 2pi/alat
        k(    1) = (   0.0000000   0.0000000   0.0000000), wk =   0.0078125
        k(    2) = (   0.0000000   0.0625000   0.0000000), wk =   0.0312500
        k(    3) = (   0.0000000   0.1250000   0.0000000), wk =   0.0312500
        k(    4) = (   0.0000000   0.1875000   0.0000000), wk =   0.0312500
        k(    5) = (   0.0000000   0.2500000   0.0000000), wk =   0.0312500
        k(    6) = (   0.0000000   0.3125000   0.0000000), wk =   0.0312500
        k(    7) = (   0.0000000   0.3750000   0.0000000), wk =   0.0312500
        k(    8) = (   0.0000000   0.4375000   0.0000000), wk =   0.0312500
        k(    9) = (   0.0000000  -0.5000000   0.0000000), wk =   0.0156250
        k(   10) = (   0.0625000   0.0625000   0.0000000), wk =   0.0312500
        k(   11) = (   0.0625000   0.1250000   0.0000000), wk =   0.0625000
        k(   12) = (   0.0625000   0.1875000   0.0000000), wk =   0.0625000
        k(   13) = (   0.0625000   0.2500000   0.0000000), wk =   0.0625000
        k(   14) = (   0.0625000   0.3125000   0.0000000), wk =   0.0625000
        k(   15) = (   0.0625000   0.3750000   0.0000000), wk =   0.0625000
        k(   16) = (   0.0625000   0.4375000   0.0000000), wk =   0.0625000
        k(   17) = (   0.0625000  -0.5000000   0.0000000), wk =   0.0312500
        k(   18) = (   0.1250000   0.1250000   0.0000000), wk =   0.0312500
        k(   19) = (   0.1250000   0.1875000   0.0000000), wk =   0.0625000
        k(   20) = (   0.1250000   0.2500000   0.0000000), wk =   0.0625000
        k(   21) = (   0.1250000   0.3125000   0.0000000), wk =   0.0625000
        k(   22) = (   0.1250000   0.3750000   0.0000000), wk =   0.0625000
        k(   23) = (   0.1250000   0.4375000   0.0000000), wk =   0.0625000
        k(   24) = (   0.1250000  -0.5000000   0.0000000), wk =   0.0312500
        k(   25) = (   0.1875000   0.1875000   0.0000000), wk =   0.0312500
        k(   26) = (   0.1875000   0.2500000   0.0000000), wk =   0.0625000
        k(   27) = (   0.1875000   0.3125000   0.0000000), wk =   0.0625000
        k(   28) = (   0.1875000   0.3750000   0.0000000), wk =   0.0625000
        k(   29) = (   0.1875000   0.4375000   0.0000000), wk =   0.0625000
        k(   30) = (   0.1875000  -0.5000000   0.0000000), wk =   0.0312500
        k(   31) = (   0.2500000   0.2500000   0.0000000), wk =   0.0312500
        k(   32) = (   0.2500000   0.3125000   0.0000000), wk =   0.0625000
        k(   33) = (   0.2500000   0.3750000   0.0000000), wk =   0.0625000
        k(   34) = (   0.2500000   0.4375000   0.0000000), wk =   0.0625000
        k(   35) = (   0.2500000  -0.5000000   0.0000000), wk =   0.0312500
        k(   36) = (   0.3125000   0.3125000   0.0000000), wk =   0.0312500
        k(   37) = (   0.3125000   0.3750000   0.0000000), wk =   0.0625000
        k(   38) = (   0.3125000   0.4375000   0.0000000), wk =   0.0625000
        k(   39) = (   0.3125000  -0.5000000   0.0000000), wk =   0.0312500
        k(   40) = (   0.3750000   0.3750000   0.0000000), wk =   0.0312500
        k(   41) = (   0.3750000   0.4375000   0.0000000), wk =   0.0625000
        k(   42) = (   0.3750000  -0.5000000   0.0000000), wk =   0.0312500
        k(   43) = (   0.4375000   0.4375000   0.0000000), wk =   0.0312500
        k(   44) = (   0.4375000  -0.5000000   0.0000000), wk =   0.0312500
        k(   45) = (  -0.5000000  -0.5000000   0.0000000), wk =   0.0078125

     Dense  grid:   149919 G-vectors     FFT dimensions: (  30,  30, 360)

     Largest allocated arrays     est. size (Mb)     dimensions
        Kohn-Sham Wavefunctions        44.73 Mb     (   58632,   50)
        NL pseudopotentials           100.20 Mb     (   58632,  112)
        Each V/rho on FFT grid          4.94 Mb     (  324000)
        Each G-vector array             1.14 Mb     (  149919)
        G-vector shells                 0.05 Mb     (    7154)
     Largest temporary arrays     est. size (Mb)     dimensions
        Auxiliary wavefunctions       178.93 Mb     (   58632,  200)
        Each subspace H/S matrix        0.61 Mb     (     200,  200)
        Each <psi_i|beta_j> matrix      0.09 Mb     (     112,   50)
        Arrays for rho mixing          39.55 Mb     (  324000,    8)

     Initial potential from superposition of free atoms

     starting charge   83.93097, renormalised to   84.00000

     negative rho (up, down):  5.288E-05 0.000E+00
     Starting wfc are  112 randomized atomic wfcs

     total cpu time spent up to now is      519.5 secs

     Self-consistent Calculation

     iteration #  1     ecut=    80.00 Ry     beta=0.30
     Davidson diagonalization with overlap
     ethr =  1.00E-02,  avg # of iterations =  2.7

     total cpu time spent up to now is     1350.0 secs

     total energy              =    -349.01424899 Ry
     Harris-Foulkes estimate   =    -349.07408924 Ry
     estimated scf accuracy    <       2.64085615 Ry

     iteration #  2     ecut=    80.00 Ry     beta=0.30
     Davidson diagonalization with overlap
     ethr =  3.14E-03,  avg # of iterations =  1.0

     total cpu time spent up to now is     1855.5 secs

     total energy              =    -348.85028726 Ry
     Harris-Foulkes estimate   =    -349.03356872 Ry
     estimated scf accuracy    <       1.85531703 Ry

     iteration #  3     ecut=    80.00 Ry     beta=0.30
     Davidson diagonalization with overlap
     ethr =  2.21E-03,  avg # of iterations =  1.5

     total cpu time spent up to now is     2357.1 secs

     total energy              =    -348.92425228 Ry
     Harris-Foulkes estimate   =    -348.93367812 Ry
     estimated scf accuracy    <       0.07331689 Ry

     iteration #  4     ecut=    80.00 Ry     beta=0.30
     Davidson diagonalization with overlap
     c_bands:  1 eigenvalues not converged
     ethr =  8.73E-05,  avg # of iterations =  5.2

     total cpu time spent up to now is     2998.0 secs

     total energy              =    -348.93211710 Ry
     Harris-Foulkes estimate   =    -348.93387578 Ry
     estimated scf accuracy    <       0.02555719 Ry

     iteration #  5     ecut=    80.00 Ry     beta=0.30
     Davidson diagonalization with overlap
     ethr =  3.04E-05,  avg # of iterations =  1.7

     total cpu time spent up to now is     3498.4 secs

     total energy              =    -348.92681286 Ry
     Harris-Foulkes estimate   =    -348.93267180 Ry
     estimated scf accuracy    <       0.02079618 Ry

     iteration #  6     ecut=    80.00 Ry     beta=0.30
     Davidson diagonalization with overlap
     ethr =  2.48E-05,  avg # of iterations =  2.9

     total cpu time spent up to now is     4053.0 secs

     total energy              =    -348.92701258 Ry
     Harris-Foulkes estimate   =    -348.92877192 Ry
     estimated scf accuracy    <       0.05102535 Ry

     iteration #  7     ecut=    80.00 Ry     beta=0.30
     Davidson diagonalization with overlap
     ethr =  2.48E-05,  avg # of iterations =  1.0

     negative rho (up, down):  7.187E-04 0.000E+00

     total cpu time spent up to now is     4548.4 secs

     total energy              =    -348.92315384 Ry
     Harris-Foulkes estimate   =    -348.92732422 Ry
     estimated scf accuracy    <       0.02423593 Ry

     iteration #  8     ecut=    80.00 Ry     beta=0.30
     Davidson diagonalization with overlap
     ethr =  2.48E-05,  avg # of iterations =  3.5

     negative rho (up, down):  3.958E-03 0.000E+00

     total cpu time spent up to now is     5200.7 secs

     total energy              =    -348.92536347 Ry
     Harris-Foulkes estimate   =    -348.92855998 Ry
     estimated scf accuracy    <       0.07448787 Ry

     iteration #  9     ecut=    80.00 Ry     beta=0.30
     Davidson diagonalization with overlap
     ethr =  2.48E-05,  avg # of iterations =  1.5

     negative rho (up, down):  1.298E-02 0.000E+00

     total cpu time spent up to now is     5703.3 secs

     total energy              =    -348.91840189 Ry
     Harris-Foulkes estimate   =    -348.92613360 Ry
     estimated scf accuracy    <       0.02457010 Ry

     iteration # 10     ecut=    80.00 Ry     beta=0.30
     Davidson diagonalization with overlap
     ethr =  2.48E-05,  avg # of iterations =  3.7

     negative rho (up, down):  1.845E-02 0.000E+00

     total cpu time spent up to now is     6464.9 secs

     total energy              =    -348.93936525 Ry
     Harris-Foulkes estimate   =    -348.94600081 Ry
     estimated scf accuracy    <       0.56562758 Ry

     iteration # 11     ecut=    80.00 Ry     beta=0.30
     Davidson diagonalization with overlap
     ethr =  2.48E-05,  avg # of iterations =  1.0

     negative rho (up, down):  2.104E-02 0.000E+00

     total cpu time spent up to now is     6961.4 secs

     total energy              =    -348.90881948 Ry
     Harris-Foulkes estimate   =    -348.93983447 Ry
     estimated scf accuracy    <       0.42555937 Ry

     iteration # 12     ecut=    80.00 Ry     beta=0.30
     Davidson diagonalization with overlap
     ethr =  2.48E-05,  avg # of iterations =  3.3

     negative rho (up, down):  7.741E-03 0.000E+00

     total cpu time spent up to now is     7691.9 secs

     total energy              =    -348.92475065 Ry
     Harris-Foulkes estimate   =    -348.92507343 Ry
     estimated scf accuracy    <       0.00170272 Ry

     iteration # 13     ecut=    80.00 Ry     beta=0.30
     Davidson diagonalization with overlap
     ethr =  2.03E-06,  avg # of iterations =  3.5

     negative rho (up, down):  3.084E-03 0.000E+00

     total cpu time spent up to now is     8283.3 secs

     total energy              =    -348.92486525 Ry
     Harris-Foulkes estimate   =    -348.92497065 Ry
     estimated scf accuracy    <       0.00154390 Ry

     iteration # 14     ecut=    80.00 Ry     beta=0.30
     Davidson diagonalization with overlap
     ethr =  1.84E-06,  avg # of iterations =  1.0

     negative rho (up, down):  2.608E-03 0.000E+00

     total cpu time spent up to now is     8793.9 secs

     total energy              =    -348.92487732 Ry
     Harris-Foulkes estimate   =    -348.92488400 Ry
     estimated scf accuracy    <       0.00072623 Ry

     iteration # 15     ecut=    80.00 Ry     beta=0.30
     Davidson diagonalization with overlap
     ethr =  8.65E-07,  avg # of iterations =  1.0

     negative rho (up, down):  2.438E-03 0.000E+00

     total cpu time spent up to now is     9292.8 secs

     total energy              =    -348.92488036 Ry
     Harris-Foulkes estimate   =    -348.92488130 Ry
     estimated scf accuracy    <       0.00048239 Ry

     iteration # 16     ecut=    80.00 Ry     beta=0.30
     Davidson diagonalization with overlap
     ethr =  5.74E-07,  avg # of iterations =  1.0

     negative rho (up, down):  1.921E-03 0.000E+00

     total cpu time spent up to now is     9790.2 secs

     total energy              =    -348.92486436 Ry
     Harris-Foulkes estimate   =    -348.92488141 Ry
     estimated scf accuracy    <       0.00043153 Ry

     iteration # 17     ecut=    80.00 Ry     beta=0.30
     Davidson diagonalization with overlap
     ethr =  5.14E-07,  avg # of iterations =  1.0

     negative rho (up, down):  5.731E-05 0.000E+00

     total cpu time spent up to now is    10288.2 secs

     total energy              =    -348.92484069 Ry
     Harris-Foulkes estimate   =    -348.92486623 Ry
     estimated scf accuracy    <       0.00021724 Ry

     iteration # 18     ecut=    80.00 Ry     beta=0.30
     Davidson diagonalization with overlap
     ethr =  2.59E-07,  avg # of iterations =  2.4

     negative rho (up, down):  2.607E-04 0.000E+00

     total cpu time spent up to now is    10841.3 secs

     total energy              =    -348.92485335 Ry
     Harris-Foulkes estimate   =    -348.92485580 Ry
     estimated scf accuracy    <       0.00004132 Ry

     iteration # 19     ecut=    80.00 Ry     beta=0.30
     Davidson diagonalization with overlap
     ethr =  4.92E-08,  avg # of iterations =  1.7

     negative rho (up, down):  7.154E-06 0.000E+00

     total cpu time spent up to now is    11341.4 secs

     End of self-consistent calculation

          k = 0.0000 0.0000 0.0000 ( 58507 PWs)   bands (ev):

    -7.6209  -7.4838  -7.2602  -6.9516  -6.5575  -6.0764  -5.5122  -4.8684
    -4.1500  -3.3552  -2.4888  -1.5552  -0.5576   0.5810   0.6623   0.6623
     0.7883   0.7883   0.9939   0.9939   1.0491   1.2777   1.2777   1.6410
     1.6410   2.0237   2.0237   2.0860   2.0860   2.1547   2.1548   2.3676
     2.3676   2.6102   2.6102   2.6579   2.6579   2.8168   3.0202   3.0202
     3.2111   3.2111   3.4359   3.4359   3.8850   3.8850   3.9649   4.0613
     4.0613   4.6358

          k = 0.0000 0.0625 0.0000 ( 58433 PWs)   bands (ev):

    -7.5851  -7.4481  -7.2245  -6.9160  -6.5220  -6.0410  -5.4769  -4.8332
    -4.1150  -3.3204  -2.4542  -1.5208  -0.5236   0.0898   0.2184   0.4278
     0.6149   0.6951   0.7165   0.8212   1.0267   1.0823   1.0852   1.3105
     1.5349   1.6739   2.0581   2.0586   2.1188   2.1915   2.3984   2.6430
     2.6521   2.6549   2.6894   2.7852   2.8502   2.9943   3.0749   3.2440
     3.2832   3.2896   3.5785   3.6930   3.9104   3.9178   3.9976   4.1492
     4.2994   4.4840

          k = 0.0000 0.1250 0.0000 ( 58431 PWs)   bands (ev):

    -7.4778  -7.3409  -7.1174  -6.8091  -6.4154  -5.9347  -5.3710  -4.7278
    -4.0101  -3.2160  -2.3504  -1.4178  -0.8146  -0.6843  -0.4718  -0.4214
    -0.1789   0.1950   0.6512   0.7167   0.7936   0.9196   1.1252   1.1816
     1.1850   1.4090   1.7723   1.7895   2.1607   2.2173   2.2849   2.4445
     2.4972   2.7415   2.8302   2.9502   3.0481   3.3424   3.4473   3.6941
     3.7462   3.8689   4.0163   4.0755   4.0953   4.1272   4.1764   4.3731
     4.5909   4.7670

          k = 0.0000 0.1875 0.0000 ( 58434 PWs)   bands (ev):

    -7.2992  -7.1623  -6.9391  -6.6312  -6.2379  -5.7578  -5.1948  -4.5522
    -3.8354  -3.0422  -2.1776  -1.7136  -1.5820  -1.3675  -1.2462  -1.0717
    -0.6941  -0.2512  -0.2332   0.3068   0.8861   0.9214   0.9576   1.0837
     1.2892   1.3471   1.5731   1.6019   1.9365   2.3057   2.3465   2.3814
     2.4531   2.7014   2.8852   2.9056   3.1158   3.3737   3.4376   3.5065
     3.8705   4.1583   4.1803   4.2563   4.3976   4.9292   4.9310   4.9574
     5.0684   5.1271

          k = 0.0000 0.2500 0.0000 ( 58446 PWs)   bands (ev):

    -7.0494  -6.9128  -6.6899  -6.3825  -5.9899  -5.5105  -4.9483  -4.3068
    -3.5911  -2.7993  -2.5646  -2.4321  -2.2160  -1.9361  -1.9180  -1.5375
    -1.0730  -1.0064  -0.5285  -0.0135   0.0922   0.7828   1.1226   1.1874
     1.3134   1.5190   1.5410   1.5787   1.8028   2.1663   2.3334   2.5605
     2.6112   2.7118   2.8446   3.1354   3.3126   3.3448   3.4308   3.6590
     3.7363   4.1040   4.3112   4.4100   4.4761   4.6340   5.1605   5.2289
     5.3745   5.3925

          k = 0.0000 0.3125 0.0000 ( 58412 PWs)   bands (ev):

    -6.7289  -6.5925  -6.3701  -6.0634  -5.6715  -5.1931  -4.6321  -3.9919
    -3.3571  -3.2777  -3.2237  -3.0063  -2.7065  -2.4875  -2.3236  -1.8561
    -1.6263  -1.3080  -0.6987  -0.6829   0.0137   0.2914   0.7822   1.4254
     1.4828   1.6089   1.6134   1.8145   1.8762   2.0983   2.4618   2.4727
     2.8677   2.9067   2.9405   3.3339   3.4309   3.5833   3.6232   3.6318
     3.9579   4.0317   4.4115   4.6345   4.6367   4.7053   4.7397   4.7629
     4.9683   4.9801

          k = 0.0000 0.3750 0.0000 ( 58448 PWs)   bands (ev):

    -6.3381  -6.2021  -5.9802  -5.6742  -5.2834  -4.8062  -4.2466  -4.0866
    -3.9526  -3.7340  -3.6080  -3.4326  -3.0476  -2.8956  -2.5776  -2.1075
    -2.0265  -1.3978  -1.2487  -0.6968  -0.3239   0.0778   0.6626   0.9196
     1.7933   1.8187   1.8440   1.9700   2.1757   2.2392   2.4595   2.7373
     2.8230   3.1829   3.2679   3.4916   3.6636   3.7920   3.9466   3.9540
     3.9597   4.0133   4.0727   4.2783   4.3337   4.3356   4.3927   4.5620
     4.7979   4.9253

          k = 0.0000 0.4375 0.0000 ( 58472 PWs)   bands (ev):

    -5.8776  -5.7420  -5.5208  -5.2158  -4.8261  -4.7508  -4.6162  -4.3967
    -4.3503  -4.0939  -3.7924  -3.7071  -3.2349  -3.1557  -2.6812  -2.4456
    -2.0494  -1.6600  -1.3449  -0.8040  -0.5658   0.1172   0.2821   1.0991
     1.1925   2.1557   2.2237   2.2709   2.3970   2.6026   2.6671   2.8865
     3.1925   3.2499   3.3222   3.4483   3.6539   3.6919   3.6948   3.7920
     3.9016   3.9378   4.0915   4.2188   4.2379   4.3011   4.3863   4.7457
     4.8049   4.8178

          k = 0.0000-0.5000 0.0000 ( 58486 PWs)   bands (ev):

    -5.3483  -5.3482  -5.2131  -5.2131  -4.9927  -4.9927  -4.6887  -4.6887
    -4.3003  -4.3003  -3.8262  -3.8262  -3.2703  -3.2703  -2.6359  -2.6359
    -1.9283  -1.9283  -1.1457  -1.1456  -0.2932  -0.2932   0.6235   0.6235
     1.5988   1.5988   2.7086   2.7086   2.7636   2.7637   2.8897   2.8897
     3.0954   3.0954   3.1583   3.1584   3.3792   3.3792   3.7426   3.7426
     4.1232   4.1232   4.1874   4.1874   4.3429   4.3429   4.5770   4.5770
     4.7113   4.7113

          k = 0.0625 0.0625 0.0000 ( 58425 PWs)   bands (ev):

    -7.5494  -7.4123  -7.1888  -6.8804  -6.4864  -6.0055  -5.4416  -4.7980
    -4.0801  -3.2856  -2.4196  -1.4865  -0.4895   0.1233   0.1233   0.2517
     0.2517   0.4610   0.4610   0.6489   0.7495   0.7495   1.1154   1.1179
     1.1179   1.5668   1.5668   2.0978   2.0978   2.6876   2.6876   2.7128
     2.7128   2.8184   2.8184   2.8835   3.0286   3.0286   3.2636   3.2636
     3.4271   3.4271   3.6663   3.6663   4.0300   4.1442   4.1442   4.2029
     4.2029   4.7081

          k = 0.0625 0.1250 0.0000 ( 58434 PWs)   bands (ev):

    -7.4421  -7.3051  -7.0817  -6.7735  -6.3799  -5.8993  -5.3358  -4.6926
    -3.9751  -3.1813  -2.3159  -1.3834  -0.7807  -0.6504  -0.4381  -0.3873
    -0.1454   0.2235   0.2278   0.3522   0.5598   0.6846   0.7506   0.8483
     1.2147   1.2150   1.2159   1.6741   1.8222   2.2252   2.5172   2.7903
     2.8158   2.9193   2.9829   3.0852   3.2885   3.4068   3.4877   3.7764
     3.8684   3.9097   4.0761   4.1265   4.1681   4.2452   4.3010   4.3779
     4.7651   4.7856

          k = 0.0625 0.1875 0.0000 ( 58441 PWs)   bands (ev):

    -7.2635  -7.1267  -6.9035  -6.5957  -6.2025  -5.7225  -5.1595  -4.5171
    -3.8005  -3.0075  -2.1431  -1.6793  -1.5478  -1.3333  -1.2119  -1.0377
    -0.6603  -0.2173  -0.1999   0.3385   0.3905   0.5192   0.7257   0.9198
     0.9509   1.0135   1.3802   1.3909   1.6188   1.8786   2.3798   2.4065
     2.9563   2.9809   3.0466   3.1471   3.2206   3.2860   3.6575   3.7127
     4.0188   4.2130   4.2831   4.4035   4.4579   4.9688   4.9784   5.0827
     5.1330   5.2239

          k = 0.0625 0.2500 0.0000 ( 58463 PWs)   bands (ev):

    -7.0137  -6.8772  -6.6544  -6.3470  -5.9544  -5.4752  -4.9132  -4.2718
    -3.5563  -2.7646  -2.5301  -2.3976  -2.1815  -1.9017  -1.8837  -1.5033
    -1.0390  -0.9722  -0.4949   0.0203   0.1246   0.6240   0.7474   0.8146
     0.9582   1.1560   1.2544   1.5161   1.6117   1.7017   2.0839   2.4174
     2.6102   3.1539   3.2145   3.2546   3.3074   3.3711   3.6934   3.8896
     3.8948   4.2500   4.3443   4.4731   4.6498   4.7009   4.9002   5.0600
     5.1578   5.1958

          k = 0.0625 0.3125 0.0000 ( 58435 PWs)   bands (ev):

    -6.6933  -6.5570  -6.3346  -6.0279  -5.6362  -5.1579  -4.5970  -3.9570
    -3.3223  -3.2429  -3.1890  -2.9716  -2.6719  -2.4529  -2.2891  -1.8218
    -1.5920  -1.2739  -0.6647  -0.6492   0.0464   0.3250   0.8086   0.9245
     1.0493   1.2640   1.4582   1.5010   1.7186   1.9090   1.9337   2.3800
     2.5562   2.9095   3.3781   3.4710   3.5188   3.6230   3.8208   3.9021
     4.1822   4.1851   4.1894   4.2020   4.4380   4.5437   4.7116   4.7274
     4.8624   4.9049

          k = 0.0625 0.3750 0.0000 ( 58445 PWs)   bands (ev):

    -6.3026  -6.1666  -5.9448  -5.6389  -5.2481  -4.7711  -4.2116  -4.0517
    -3.9177  -3.6992  -3.5732  -3.3978  -3.0130  -2.8610  -2.5431  -2.0731
    -1.9922  -1.3636  -1.2145  -0.6631  -0.2901   0.1105   0.6958   0.9468
     1.2877   1.4188   1.5968   1.8243   1.9041   1.9324   2.2716   2.2955
     2.7408   2.8288   3.2711   3.3860   3.5411   3.7002   3.7536   3.8752
     4.0419   4.0420   4.0848   4.1313   4.2600   4.3856   4.4105   4.5458
     4.5663   4.8555

          k = 0.0625 0.4375 0.0000 ( 58460 PWs)   bands (ev):

    -5.8423  -5.7067  -5.4856  -5.1805  -4.7909  -4.7158  -4.5812  -4.3617
    -4.3153  -4.0589  -3.7575  -3.6723  -3.2002  -3.1210  -2.6466  -2.4110
    -2.0150  -1.6256  -1.3107  -0.7700  -0.5321   0.1507   0.3147   1.1311
     1.2191   1.7195   1.8266   2.0783   2.2315   2.2423   2.3597   2.6958
     2.7253   2.8017   2.9252   3.1295   3.1739   3.3032   3.4165   3.7082
     3.7448   3.7835   4.2328   4.3055   4.3136   4.4254   4.4633   4.6784
     4.7630   4.9730

          k = 0.0625-0.5000 0.0000 ( 58486 PWs)   bands (ev):

    -5.3130  -5.3130  -5.1779  -5.1779  -4.9575  -4.9575  -4.6536  -4.6536
    -4.2653  -4.2653  -3.7914  -3.7913  -3.2355  -3.2355  -2.6013  -2.6013
    -1.8939  -1.8939  -1.1116  -1.1115  -0.2596  -0.2596   0.6558   0.6558
     1.6239   1.6239   2.2003   2.2003   2.3678   2.3678   2.5680   2.5680
     2.7806   2.7806   2.8550   2.8550   3.1918   3.1918   3.2229   3.2229
     3.6735   3.6735   4.1996   4.1996   4.5939   4.5939   4.8038   4.8038
     4.9128   4.9128

          k = 0.1250 0.1250 0.0000 ( 58417 PWs)   bands (ev):

    -7.3349  -7.1980  -6.9748  -6.6668  -6.2734  -5.7932  -5.2300  -4.5873
    -3.8703  -3.0770  -2.2122  -1.2805  -0.6791  -0.6791  -0.5490  -0.5490
    -0.3370  -0.3370  -0.2853  -0.0448  -0.0448   0.3278   0.3278   0.7806
     0.7806   0.8520   1.3140   1.3230   1.3230   1.9596   1.9596   2.6285
     2.6285   3.0802   3.3726   3.3726   3.8740   3.8740   3.9773   3.9773
     4.1536   4.1536   4.2171   4.2197   4.2197   4.5982   4.5982   4.8980
     4.8980   5.1548

          k = 0.1250 0.1875 0.0000 ( 58408 PWs)   bands (ev):

    -7.1564  -7.0197  -6.7967  -6.4891  -6.0961  -5.6164  -5.0539  -4.4119
    -3.6958  -2.9033  -2.0396  -1.5766  -1.4452  -1.2310  -1.1092  -0.9359
    -0.5596  -0.5097  -0.3794  -0.1715  -0.1155  -0.0969   0.1216   0.4362
     0.4925   0.9596   1.0207   1.0532   1.4793   1.5249   1.7704   2.1189
     2.5177   2.8009   3.2373   3.3278   3.5608   4.0193   4.1348   4.1578
     4.3388   4.3754   4.5433   4.7170   4.8676   5.0338   5.0577   5.0689
     5.0841   5.1440

          k = 0.1250 0.2500 0.0000 ( 58479 PWs)   bands (ev):

    -6.9069  -6.7704  -6.5477  -6.2406  -5.8483  -5.3694  -4.8077  -4.1668
    -3.4517  -2.6606  -2.4266  -2.2942  -2.0784  -1.7984  -1.7808  -1.4009
    -0.9374  -0.8697  -0.3956  -0.2730  -0.1429   0.0639   0.1217   0.2230
     0.3551   0.7397   0.9013   1.2370   1.2558   1.7076   1.7105   1.7438
     2.3474   2.5364   3.0283   3.4206   3.4208   3.7831   4.0702   4.1076
     4.2245   4.2545   4.3272   4.6081   4.6113   4.6192   4.6681   4.7275
     4.9438   4.9953

          k = 0.1250 0.3125 0.0000 ( 58443 PWs)   bands (ev):

    -6.5866  -6.4504  -6.2282  -5.9217  -5.5302  -5.0523  -4.4918  -3.8522
    -3.2182  -3.1387  -3.0850  -2.8678  -2.5683  -2.3493  -2.1858  -1.7190
    -1.4890  -1.1719  -0.5626  -0.5489   0.0306   0.1281   0.1722   0.3666
     0.4255   0.6682   0.8705   1.1120   1.5112   1.5552   1.7791   2.0071
     2.0412   2.6512   2.6722   3.1899   3.3352   3.3656   3.5830   3.6143
     3.8743   3.8837   4.0959   4.2458   4.4463   4.6910   4.7467   4.8051
     4.9485   4.9697

          k = 0.1250 0.3750 0.0000 ( 58427 PWs)   bands (ev):

    -6.1962  -6.0604  -5.8387  -5.5330  -5.1425  -4.6657  -4.1067  -3.9470
    -3.8131  -3.5947  -3.4687  -3.2936  -2.9090  -2.7570  -2.4395  -1.9697
    -1.8891  -1.2614  -1.1119  -0.5625  -0.1888   0.2039   0.4011   0.5259
     0.7444   0.7944   0.9443   1.1699   1.4264   1.8760   1.9066   1.9834
     2.3659   2.4100   2.5611   2.6871   2.8935   2.9225   3.0398   3.1828
     3.5522   3.6838   4.0045   4.0529   4.1928   4.3731   4.5391   4.5614
     4.9486   5.0979

          k = 0.1250 0.4375 0.0000 ( 58425 PWs)   bands (ev):

    -5.7362  -5.6007  -5.3798  -5.0750  -4.6856  -4.6105  -4.4760  -4.2567
    -4.2103  -3.9542  -3.6529  -3.5678  -3.0961  -3.0169  -2.5430  -2.3074
    -1.9119  -1.5228  -1.2085  -0.6682  -0.4316   0.2503   0.4084   0.8338
     0.9667   1.1229   1.2213   1.4062   1.4922   1.8574   1.8744   2.0631
     2.2632   2.2922   2.3387   2.4064   2.5529   2.7978   2.8388   2.9239
     3.3781   3.4303   3.4443   3.8577   3.9070   4.1444   4.5155   4.5976
     4.8992   5.2121

          k = 0.1250-0.5000 0.0000 ( 58430 PWs)   bands (ev):

    -5.2074  -5.2073  -5.0723  -5.0723  -4.8521  -4.8521  -4.5484  -4.5484
    -4.1604  -4.1604  -3.6868  -3.6868  -3.1314  -3.1313  -2.4976  -2.4976
    -1.7908  -1.7908  -1.0094  -1.0094  -0.1594  -0.1594   0.7484   0.7484
     1.3353   1.3353   1.4273   1.4273   1.7062   1.7062   1.7941   1.7941
     1.9885   1.9885   2.3564   2.3564   2.8076   2.8076   2.8739   2.8739
     3.2901   3.2901   3.3492   3.3492   3.9589   3.9589   4.6294   4.6294
     5.0339   5.0339

          k = 0.1875 0.1875 0.0000 ( 58407 PWs)   bands (ev):

    -6.9781  -6.8416  -6.6188  -6.3115  -5.9191  -5.4399  -4.8780  -4.2368
    -3.5214  -2.7300  -1.8673  -1.4057  -1.4057  -1.2746  -1.2746  -1.0609
    -1.0609  -0.9381  -0.7664  -0.7664  -0.3909  -0.3909   0.0538   0.0653
     0.0653   0.6139   0.6139   1.1882   1.2570   1.2570   1.6443   1.9319
     1.9319   2.6900   2.6900   3.3533   3.5169   3.5169   4.0164   4.0652
     4.2787   4.3992   4.3992   4.5711   4.6745   4.9487   5.1951   5.1951
     5.2365   5.2366

          k = 0.1875 0.2500 0.0000 ( 58409 PWs)   bands (ev):

    -6.7289  -6.5925  -6.3701  -6.0634  -5.6715  -5.1931  -4.6321  -3.9919
    -3.2777  -2.4876  -2.2543  -2.1221  -1.9066  -1.6265  -1.6097  -1.2311
    -1.1667  -1.0354  -0.8272  -0.7643  -0.6992  -0.5310  -0.2286  -0.1574
     0.2901   0.3142   0.3941   0.8825   1.1149   1.4203   1.4815   1.8686
     1.8747   2.1692   2.6933   2.9376   3.0744   3.2570   3.4759   3.5730
     3.7674   3.7683   3.7836   4.1408   4.4911   4.5861   4.7028   4.8532
     5.1206   5.3422

          k = 0.1875 0.3125 0.0000 ( 58436 PWs)   bands (ev):

    -6.4090  -6.2730  -6.0510  -5.7449  -5.3538  -4.8765  -4.3166  -3.6777
    -3.0448  -2.9650  -2.9117  -2.6948  -2.3958  -2.1766  -2.0140  -1.5482
    -1.3176  -1.0036  -0.8601  -0.7291  -0.5217  -0.3930  -0.3806  -0.2279
     0.1599   0.3040   0.5919   0.6575   1.1115   1.1705   1.7047   1.7759
     1.9498   2.1675   2.3881   2.4616   2.5153   2.7226   2.8509   3.0130
     3.2219   3.3835   3.8106   3.8370   4.0104   4.0504   4.3733   4.8998
     4.9244   4.9593

          k = 0.1875 0.3750 0.0000 ( 58449 PWs)   bands (ev):

    -6.0191  -5.8834  -5.6620  -5.3566  -4.9666  -4.4904  -3.9320  -3.7726
    -3.6389  -3.4208  -3.2947  -3.1201  -2.7360  -2.5839  -2.2672  -1.7977
    -1.7178  -1.0921  -0.9414  -0.4865  -0.4075  -0.3482  -0.1487  -0.0210
     0.1553   0.3414   0.5950   0.9522   1.0032   1.2479   1.5362   1.6294
     1.8249   2.0254   2.1459   2.1486   2.1497   2.3164   2.5339   2.6890
     2.8375   3.1088   3.1448   3.6025   3.6752   4.1743   4.2855   4.3643
     4.4929   4.6310

          k = 0.1875 0.4375 0.0000 ( 58448 PWs)   bands (ev):

    -5.5597  -5.4243  -5.2036  -4.8991  -4.5103  -4.4354  -4.3010  -4.0819
    -4.0355  -3.7798  -3.4788  -3.3938  -2.9227  -2.8435  -2.3704  -2.1350
    -1.7404  -1.3517  -1.0389  -0.4994  -0.2693  -0.0461   0.0791   0.2991
     0.4110   0.4883   0.7138   0.9853   1.0263   1.1131   1.4006   1.4373
     1.4677   1.5189   1.6839   1.9742   2.0532   2.4669   2.5059   2.5457
     2.6058   2.9612   3.0508   3.2504   3.6273   3.6628   3.9252   4.1311
     4.3350   4.7926

          k = 0.1875-0.5000 0.0000 ( 58426 PWs)   bands (ev):

    -5.0314  -5.0314  -4.8966  -4.8966  -4.6766  -4.6766  -4.3732  -4.3732
    -3.9857  -3.9857  -3.5126  -3.5126  -2.9579  -2.9579  -2.3250  -2.3250
    -1.6194  -1.6194  -0.8401  -0.8401   0.0029   0.0029   0.4558   0.4558
     0.5895   0.5895   0.7390   0.7390   1.0134   1.0134   1.1187   1.1187
     1.4856   1.4856   1.9065   1.9065   1.9585   1.9585   2.4706   2.4707
     3.0432   3.0432   3.0773   3.0774   3.4669   3.4669   3.7840   3.7840
     4.5414   4.5414

          k = 0.2500 0.2500 0.0000 ( 58475 PWs)   bands (ev):

    -6.4801  -6.3439  -6.1219  -5.8156  -5.4244  -4.9468  -4.3867  -3.7475
    -3.0345  -2.2457  -2.0135  -2.0135  -1.8817  -1.8817  -1.6668  -1.6668
    -1.3862  -1.3706  -1.3706  -0.9929  -0.9929  -0.5339  -0.5339  -0.4612
     0.0185   0.0185   0.5243   0.6622   0.6623   1.3418   1.3418   1.6374
     2.1014   2.1052   2.1052   2.3280   2.4556   2.6632   2.9393   2.9393
     2.9538   3.3246   3.7786   3.8375   3.8375   3.9472   4.3153   4.7923
     4.7923   4.9008

          k = 0.2500 0.3125 0.0000 ( 58472 PWs)   bands (ev):

    -6.1608  -6.0249  -5.8033  -5.4977  -5.1073  -4.6306  -4.0717  -3.4338
    -2.8024  -2.7224  -2.6696  -2.4532  -2.1549  -1.9354  -1.7745  -1.7045
    -1.5726  -1.3637  -1.3049  -1.0783  -1.0655  -0.7669  -0.6897  -0.2155
    -0.1569  -0.1401   0.3518   0.5800   0.8175   0.9556   1.3379   1.5032
     1.6474   1.7008   1.9016   2.0139   2.1672   2.1931   2.4016   2.4203
     2.5663   3.0229   3.0535   3.2720   3.5539   3.9850   4.1651   4.2019
     4.2382   4.8517

          k = 0.2500 0.3750 0.0000 ( 58475 PWs)   bands (ev):

    -5.7715  -5.6360  -5.4149  -5.1101  -4.7206  -4.2452  -3.6877  -3.5289
    -3.3954  -3.1777  -3.0515  -2.8775  -2.4943  -2.3420  -2.0267  -1.5575
    -1.4799  -1.3280  -1.1963  -0.9882  -0.8538  -0.7039  -0.6926  -0.3030
    -0.1644   0.1920   0.2081   0.6409   0.7109   0.8347   0.9200   1.2100
     1.2687   1.3174   1.4852   1.4940   1.8640   2.0066   2.3176   2.3462
     2.3908   2.7633   2.7702   2.8641   3.3579   3.4773   3.6022   4.1502
     4.4728   4.4776

          k = 0.2500 0.4375 0.0000 ( 58487 PWs)   bands (ev):

    -5.3128  -5.1777  -4.9573  -4.6534  -4.2651  -4.1905  -4.0563  -3.8376
    -3.7911  -3.5360  -3.2354  -3.1507  -2.6805  -2.6012  -2.1295  -1.8943
    -1.5017  -1.1133  -0.8844  -0.8132  -0.7468  -0.5452  -0.2682  -0.2400
    -0.0583   0.1949   0.1963   0.3304   0.4783   0.6099   0.7461   0.8445
     0.8605   1.1451   1.2287   1.6417   1.7005   1.7491   1.7610   2.2160
     2.4514   2.7140   2.7791   2.8237   3.2045   3.2191   3.5335   3.7866
     4.1160   4.2390

          k = 0.2500-0.5000 0.0000 ( 58432 PWs)   bands (ev):

    -4.7855  -4.7855  -4.6508  -4.6508  -4.4312  -4.4312  -4.1283  -4.1283
    -3.7415  -3.7415  -3.2692  -3.2692  -2.7155  -2.7155  -2.0840  -2.0840
    -1.3806  -1.3806  -0.6085  -0.6085  -0.3746  -0.3745  -0.2489  -0.2489
    -0.0281  -0.0281   0.1586   0.1587   0.3791   0.3791   0.6595   0.6595
     1.1132   1.1132   1.1833   1.1833   1.6521   1.6521   2.1353   2.1353
     2.2852   2.2852   2.9300   2.9300   3.3025   3.3025   3.5993   3.5994
     3.8131   3.8131

          k = 0.3125 0.3125 0.0000 ( 58493 PWs)   bands (ev):

    -5.8422  -5.7066  -5.4855  -5.1804  -4.7908  -4.3152  -3.7574  -3.1210
    -2.4914  -2.4914  -2.4111  -2.3591  -2.3591  -2.1433  -2.1433  -1.8459
    -1.8459  -1.6262  -1.4665  -1.4665  -1.0052  -1.0052  -0.7722  -0.4503
    -0.4503   0.1404   0.1920   0.1920   0.7702   0.8551   0.8756   0.8756
     1.1456   1.2019   1.4299   1.6424   1.6424   1.8002   2.2540   2.2794
     2.4803   2.4803   2.6972   2.8010   3.3832   3.3832   3.4146   4.0878
     4.3446   4.3446

          k = 0.3125 0.3750 0.0000 ( 58529 PWs)   bands (ev):

    -5.4537  -5.3185  -5.0979  -4.7937  -4.4051  -3.9306  -3.3743  -3.2162
    -3.0829  -2.8658  -2.7396  -2.5665  -2.1849  -2.1123  -2.0319  -1.9799
    -1.7704  -1.7135  -1.4708  -1.2502  -1.1734  -1.0933  -0.6177  -0.5438
    -0.4040  -0.0523   0.0650   0.1745   0.1993   0.3471   0.5555   0.6112
     0.7297   0.9356   1.0985   1.2501   1.5082   1.5703   1.7678   2.0260
     2.0869   2.6461   2.6574   2.6951   2.8810   3.0729   3.4064   3.5930
     3.8146   4.1662

          k = 0.3125 0.4375 0.0000 ( 58504 PWs)   bands (ev):

    -4.9961  -4.8612  -4.6413  -4.3380  -3.9506  -3.8762  -3.7424  -3.5241
    -3.4776  -3.2232  -2.9231  -2.8389  -2.3701  -2.2906  -1.8218  -1.6658
    -1.5862  -1.5338  -1.3250  -1.1936  -1.0282  -0.8125  -0.6377  -0.5739
    -0.5007  -0.4479  -0.2268  -0.1454  -0.0400   0.1759   0.3020   0.3780
     0.4612   0.9160   0.9809   0.9852   1.1505   1.4560   1.6768   1.9349
     2.0587   2.0901   2.4427   2.7351   3.0291   3.1051   3.2770   3.4026
     3.6199   4.1536

          k = 0.3125-0.5000 0.0000 ( 58504 PWs)   bands (ev):

    -4.4699  -4.4699  -4.3355  -4.3355  -4.1164  -4.1164  -3.8142  -3.8141
    -3.4282  -3.4281  -2.9570  -2.9570  -2.4048  -2.4048  -1.7757  -1.7757
    -1.1528  -1.1528  -1.0849  -1.0849  -1.0153  -1.0152  -0.8124  -0.8124
    -0.5067  -0.5066  -0.3259  -0.3258  -0.0757  -0.0756   0.3439   0.3439
     0.5739   0.5739   0.8806   0.8806   1.4810   1.4810   1.4981   1.4981
     2.1901   2.1902   2.4484   2.4484   2.9596   2.9596   3.5236   3.5236
     3.8592   3.8592

          k = 0.3750 0.3750 0.0000 ( 58542 PWs)   bands (ev):

    -5.0663  -4.9314  -4.7114  -4.4079  -4.0203  -3.5472  -2.9924  -2.8349
    -2.8349  -2.7022  -2.7022  -2.4858  -2.4858  -2.3596  -2.1876  -2.1876
    -1.8070  -1.8070  -1.6548  -1.3441  -1.3441  -0.8806  -0.7876  -0.7876
    -0.6406  -0.5145  -0.2933  -0.1469  -0.1469  -0.1063   0.1078   0.3948
     0.5396   0.5396   0.8499   0.9132   1.3088   1.3088   1.3903   1.8680
     2.0247   2.1491   2.1491   2.6698   3.0390   3.0547   3.0548   3.3368
     3.5552   4.0190

          k = 0.3750 0.4375 0.0000 ( 58542 PWs)   bands (ev):

    -4.6099  -4.4754  -4.2560  -3.9535  -3.5671  -3.4931  -3.3596  -3.1420
    -3.0955  -2.8421  -2.5428  -2.4596  -2.3858  -2.2531  -2.0431  -1.9871
    -1.9130  -1.7427  -1.4455  -1.3641  -1.2876  -1.2210  -1.1501  -0.9467
    -0.8876  -0.8142  -0.6407  -0.4599  -0.3239  -0.2118  -0.0974   0.2101
     0.2867   0.4382   0.6659   0.7476   0.9832   1.3465   1.3658   1.4999
     1.7610   2.0587   2.3150   2.3915   2.6180   2.8290   3.3293   3.3913
     3.5536   3.7297

          k = 0.3750-0.5000 0.0000 ( 58554 PWs)   bands (ev):

    -4.0852  -4.0852  -3.9511  -3.9511  -3.7326  -3.7325  -3.4312  -3.4312
    -3.0463  -3.0463  -2.5768  -2.5768  -2.0276  -2.0276  -1.8697  -1.8697
    -1.7374  -1.7374  -1.5281  -1.5281  -1.3981  -1.3981  -1.2306  -1.2306
    -0.8397  -0.8397  -0.7031  -0.7031  -0.3493  -0.3493   0.0977   0.0977
     0.1769   0.1769   0.7844   0.7844   0.9489   0.9489   1.4775   1.4776
     1.8584   1.8584   2.2447   2.2447   2.8305   2.8305   3.0804   3.0804
     3.9579   3.9579

          k = 0.4375 0.4375 0.0000 ( 58544 PWs)   bands (ev):

    -4.1549  -4.0208  -3.8021  -3.5006  -3.1156  -3.0418  -3.0418  -2.9089
    -2.9089  -2.6921  -2.6921  -2.6458  -2.3933  -2.3933  -2.0963  -2.0121
    -2.0121  -1.9378  -1.8055  -1.5960  -1.5481  -1.5481  -1.4664  -1.2983
    -0.9909  -0.9909  -0.9072  -0.7707  -0.4175  -0.3513  -0.3512   0.0294
     0.1097   0.3371   0.3371   0.7173   0.8816   1.1077   1.1077   1.4109
     1.7915   1.9494   1.9494   2.1785   2.7642   2.8565   2.8565   3.0146
     3.8224   3.8224

          k = 0.4375-0.5000 0.0000 ( 58586 PWs)   bands (ev):

    -3.6319  -3.6319  -3.4983  -3.4983  -3.2805  -3.2804  -2.9802  -2.9802
    -2.5973  -2.5973  -2.5230  -2.5230  -2.3901  -2.3901  -2.1799  -2.1799
    -2.1243  -2.1243  -1.8791  -1.8791  -1.5820  -1.5820  -1.4999  -1.4999
    -1.0231  -1.0230  -0.9497  -0.9497  -0.4603  -0.4603  -0.2338  -0.2338
     0.1518   0.1518   0.5306   0.5306   0.8492   0.8493   1.3655   1.3655
     1.6280   1.6280   2.2580   2.2580   2.4859   2.4859   3.1969   3.1969
     3.4225   3.4225

          k =-0.5000-0.5000 0.0000 ( 58632 PWs)   bands (ev):

    -3.1109  -3.1108  -3.1108  -3.1108  -2.9779  -2.9779  -2.9779  -2.9779
    -2.7610  -2.7610  -2.7610  -2.7610  -2.4621  -2.4620  -2.4620  -2.4620
    -2.0806  -2.0806  -2.0806  -2.0806  -1.6163  -1.6163  -1.6163  -1.6163
    -1.0588  -1.0587  -1.0587  -1.0587  -0.4195  -0.4195  -0.4195  -0.4195
     0.2695   0.2695   0.2695   0.2695   1.0405   1.0405   1.0405   1.0405
     1.8827   1.8827   1.8827   1.8827   2.7902   2.7903   2.7903   2.7903
     3.7566   3.7566

     the Fermi energy is     3.5846 ev

!    total energy              =    -348.92485431 Ry
     Harris-Foulkes estimate   =    -348.92485482 Ry
     estimated scf accuracy    <       0.00000053 Ry

     The total energy is the sum of the following terms:

     one-electron contribution =   -2741.70674041 Ry
     hartree contribution      =    1399.14462448 Ry
     xc contribution           =    -280.56660104 Ry
     ewald contribution        =    1274.20311756 Ry
     smearing contrib. (-TS)   =       0.00074511 Ry

     convergence has been achieved in  19 iterations

     Forces acting on atoms (Ry/au):


     negative rho (up, down):  7.154E-06 0.000E+00
     atom    1 type  1   force =     0.00000000    0.00000000   -0.00317636
     atom    2 type  1   force =     0.00000000    0.00000000   -0.00317625
     atom    3 type  1   force =     0.00000000    0.00000000    0.00193568
     atom    4 type  1   force =     0.00000000    0.00000000    0.00193568
     atom    5 type  1   force =     0.00000000    0.00000000    0.00064003
     atom    6 type  1   force =     0.00000000    0.00000000    0.00063965
     atom    7 type  1   force =     0.00000000    0.00000000    0.00088367
     atom    8 type  1   force =     0.00000000    0.00000000    0.00088367
     atom    9 type  1   force =     0.00000000    0.00000000   -0.00032903
     atom   10 type  1   force =     0.00000000    0.00000000   -0.00032634
     atom   11 type  1   force =     0.00000000    0.00000000   -0.00029656
     atom   12 type  1   force =     0.00000000    0.00000000   -0.00029656
     atom   13 type  1   force =     0.00000000    0.00000000   -0.00005219
     atom   14 type  1   force =     0.00000000    0.00000000   -0.00005037
     atom   15 type  1   force =     0.00000000    0.00000000    0.00006280
     atom   16 type  1   force =     0.00000000    0.00000000    0.00006280
     atom   17 type  1   force =     0.00000000    0.00000000    0.00026870
     atom   18 type  1   force =     0.00000000    0.00000000    0.00026705
     atom   19 type  1   force =     0.00000000    0.00000000    0.00035159
     atom   20 type  1   force =     0.00000000    0.00000000    0.00035159
     atom   21 type  1   force =     0.00000000    0.00000000   -0.00088717
     atom   22 type  1   force =     0.00000000    0.00000000   -0.00088992
     atom   23 type  1   force =     0.00000000    0.00000000   -0.00065833
     atom   24 type  1   force =     0.00000000    0.00000000   -0.00065833
     atom   25 type  1   force =     0.00000000    0.00000000   -0.00190790
     atom   26 type  1   force =     0.00000000    0.00000000   -0.00190752
     atom   27 type  1   force =     0.00000000    0.00000000    0.00316497
     atom   28 type  1   force =     0.00000000    0.00000000    0.00316497

     Total force =     0.007785     Total SCF correction =     0.001263
     SCF correction compared to forces is large: reduce conv_thr to get better values


     entering subroutine stress ...


     negative rho (up, down):  7.154E-06 0.000E+00
          total   stress  (Ry/bohr**3)                   (kbar)     P=   -4.19
  -0.00005071   0.00000000   0.00000000         -7.46      0.00      0.00
   0.00000000  -0.00005071   0.00000000          0.00     -7.46      0.00
   0.00000000   0.00000000   0.00001590          0.00      0.00      2.34


     BFGS Geometry Optimization

     number of scf cycles    =   1
     number of bfgs steps    =   0

     energy   new            =    -348.9248543055 Ry

     new trust radius        =       0.0031763578 bohr
     new conv_thr            =       0.0000010000 Ry


ATOMIC_POSITIONS (crystal)
Al       0.000000000   0.000000000  -0.000037970
Al       0.500000000   0.500000000  -0.000037968
Al       0.500000000   0.000000000   0.045477684
Al       0.000000000   0.500000000   0.045477684
Al       0.000000000   0.000000000   0.090916742
Al       0.500000000   0.500000000   0.090916737
Al       0.500000000   0.000000000   0.136374200
Al       0.000000000   0.500000000   0.136374200
Al       0.000000000   0.000000000   0.181814249
Al       0.500000000   0.500000000   0.181814281
Al       0.500000000   0.000000000   0.227269182
Al       0.000000000   0.500000000   0.227269182
Al       0.000000000   0.000000000   0.272726649
Al       0.500000000   0.500000000   0.272726671
Al       0.500000000   0.000000000   0.318182569
Al       0.000000000   0.500000000   0.318182569
Al       0.000000000   0.000000000   0.363639576
Al       0.500000000   0.500000000   0.363639556
Al       0.500000000   0.000000000   0.409095112
Al       0.000000000   0.500000000   0.409095112
Al       0.000000000   0.000000000   0.454534849
Al       0.500000000   0.500000000   0.454534817
Al       0.500000000   0.000000000   0.499992130
Al       0.000000000   0.500000000   0.499992130
Al       0.000000000   0.000000000   0.545431739
Al       0.500000000   0.500000000   0.545431743
Al       0.500000000   0.000000000   0.590946925
Al       0.000000000   0.500000000   0.590946925



     Writing output data file Al_100_7_4.save
     NEW-OLD atomic charge density approx. for the potential

     negative rho (up, down):  7.019E-06 0.000E+00

     total cpu time spent up to now is    11653.0 secs

     Self-consistent Calculation

     iteration #  1     ecut=    80.00 Ry     beta=0.30
     Davidson diagonalization with overlap
     ethr =  1.00E-06,  avg # of iterations =  2.2

     negative rho (up, down):  3.764E-06 0.000E+00

     total cpu time spent up to now is    12325.5 secs

     total energy              =    -348.92492456 Ry
     Harris-Foulkes estimate   =    -348.92493770 Ry
     estimated scf accuracy    <       0.00159756 Ry

     iteration #  2     ecut=    80.00 Ry     beta=0.30
     Davidson diagonalization with overlap
     ethr =  1.90E-06,  avg # of iterations =  1.0

     negative rho (up, down):  2.477E-07 0.000E+00

     total cpu time spent up to now is    12855.4 secs

     total energy              =    -348.92489004 Ry
     Harris-Foulkes estimate   =    -348.92492780 Ry
     estimated scf accuracy    <       0.00098402 Ry

     iteration #  3     ecut=    80.00 Ry     beta=0.30
     Davidson diagonalization with overlap
     ethr =  1.17E-06,  avg # of iterations =  1.1

     negative rho (up, down):  4.463E-07 0.000E+00

     total cpu time spent up to now is    13355.2 secs

     total energy              =    -348.92491102 Ry
     Harris-Foulkes estimate   =    -348.92491273 Ry
     estimated scf accuracy    <       0.00004521 Ry

     iteration #  4     ecut=    80.00 Ry     beta=0.30
     Davidson diagonalization with overlap
     ethr =  5.38E-08,  avg # of iterations =  2.1

     negative rho (up, down):  7.173E-06 0.000E+00

     total cpu time spent up to now is    13875.8 secs

     End of self-consistent calculation

          k = 0.0000 0.0000 0.0000 ( 58507 PWs)   bands (ev):

    -7.6228  -7.4857  -7.2613  -6.9523  -6.5582  -6.0764  -5.5124  -4.8697
    -4.1523  -3.3577  -2.4915  -1.5579  -0.5603   0.5775   0.6604   0.6604
     0.7864   0.7864   0.9928   0.9928   1.0459   1.2771   1.2771   1.6405
     1.6405   2.0219   2.0219   2.0862   2.0862   2.1528   2.1529   2.3665
     2.3665   2.6103   2.6103   2.6571   2.6571   2.8145   3.0192   3.0192
     3.2100   3.2100   3.4351   3.4351   3.8827   3.8827   3.9622   4.0623
     4.0623   4.6332

          k = 0.0000 0.0625 0.0000 ( 58433 PWs)   bands (ev):

    -7.5870  -7.4500  -7.2256  -6.9167  -6.5226  -6.0410  -5.4771  -4.8345
    -4.1173  -3.3229  -2.4569  -1.5236  -0.5262   0.0880   0.2164   0.4267
     0.6115   0.6932   0.7158   0.8192   1.0256   1.0791   1.0846   1.3099
     1.5350   1.6733   2.0563   2.0586   2.1190   2.1895   2.3972   2.6432
     2.6508   2.6532   2.6885   2.7833   2.8480   2.9931   3.0746   3.2428
     3.2820   3.2884   3.5772   3.6920   3.9094   3.9155   3.9950   4.1467
     4.3004   4.4845

          k = 0.0000 0.1250 0.0000 ( 58431 PWs)   bands (ev):

    -7.4797  -7.3428  -7.1185  -6.8099  -6.4160  -5.9347  -5.3712  -4.7291
    -4.0124  -3.2185  -2.3531  -1.4205  -0.8165  -0.6862  -0.4729  -0.4240
    -0.1796   0.1944   0.6512   0.7133   0.7917   0.9176   1.1241   1.1784
     1.1850   1.4083   1.7718   1.7882   2.1588   2.2175   2.2828   2.4424
     2.4960   2.7416   2.8296   2.9479   3.0472   3.3413   3.4453   3.6937
     3.7443   3.8670   4.0140   4.0742   4.0927   4.1245   4.1756   4.3723
     4.5893   4.7644

          k = 0.0000 0.1875 0.0000 ( 58434 PWs)   bands (ev):

    -7.3010  -7.1643  -6.9402  -6.6320  -6.2386  -5.7578  -5.1949  -4.5535
    -3.8376  -3.0447  -2.1803  -1.7155  -1.5839  -1.3686  -1.2489  -1.0724
    -0.6947  -0.2538  -0.2332   0.3067   0.8826   0.9202   0.9558   1.0817
     1.2882   1.3439   1.5724   1.5997   1.9359   2.3032   2.3447   2.3816
     2.4510   2.7005   2.8843   2.9058   3.1135   3.3713   3.4367   3.5054
     3.8702   4.1555   4.1780   4.2537   4.3972   4.9273   4.9284   4.9554
     5.0662   5.1250

          k = 0.0000 0.2500 0.0000 ( 58446 PWs)   bands (ev):

    -7.0513  -6.9147  -6.6910  -6.3832  -5.9905  -5.5105  -4.9485  -4.3081
    -3.5934  -2.8017  -2.5665  -2.4340  -2.2170  -1.9388  -1.9187  -1.5381
    -1.0729  -1.0091  -0.5286  -0.0161   0.0910   0.7806   1.1191   1.1855
     1.3115   1.5180   1.5386   1.5755   1.8022   2.1657   2.3309   2.5586
     2.6114   2.7100   2.8433   3.1356   3.3116   3.3425   3.4283   3.6582
     3.7351   4.1036   4.3088   4.4077   4.4735   4.6335   5.1579   5.2275
     5.3714   5.3906

          k = 0.0000 0.3125 0.0000 ( 58412 PWs)   bands (ev):

    -6.7308  -6.5945  -6.3712  -6.0641  -5.6722  -5.1931  -4.6323  -3.9932
    -3.3589  -3.2800  -3.2256  -3.0074  -2.7072  -2.4900  -2.3242  -1.8561
    -1.6290  -1.3081  -0.7015  -0.6841   0.0115   0.2888   0.7798   1.4220
     1.4809   1.6069   1.6107   1.8134   1.8730   2.0977   2.4612   2.4702
     2.8658   2.9069   2.9385   3.3326   3.4310   3.5821   3.6210   3.6296
     3.9571   4.0305   4.4113   4.6313   4.6348   4.7030   4.7371   4.7609
     4.9673   4.9797

          k = 0.0000 0.3750 0.0000 ( 58448 PWs)   bands (ev):

    -6.3400  -6.2040  -5.9813  -5.6750  -5.2840  -4.8062  -4.2468  -4.0885
    -3.9545  -3.7351  -3.6093  -3.4333  -3.0483  -2.8979  -2.5776  -2.1100
    -2.0267  -1.3991  -1.2514  -0.6990  -0.3266   0.0754   0.6600   0.9169
     1.7899   1.8161   1.8421   1.9681   2.1746   2.2360   2.4589   2.7349
     2.8225   3.1809   3.2681   3.4896   3.6625   3.7922   3.9447   3.9532
     3.9575   4.0099   4.0707   4.2772   4.3324   4.3330   4.3916   4.5614
     4.7977   4.9248

          k = 0.0000 0.4375 0.0000 ( 58472 PWs)   bands (ev):

    -5.8795  -5.7440  -5.5219  -5.2165  -4.8267  -4.7527  -4.6182  -4.3978
    -4.3503  -4.0946  -3.7926  -3.7078  -3.2349  -3.1570  -2.6814  -2.4478
    -2.0507  -1.6624  -1.3471  -0.8067  -0.5683   0.1145   0.2795   1.0966
     1.1898   2.1532   2.2203   2.2690   2.3950   2.6016   2.6639   2.8859
     3.1895   3.2494   3.3203   3.4463   3.6529   3.6890   3.6950   3.7896
     3.8993   3.9371   4.0903   4.2190   4.2356   4.3006   4.3856   4.7460
     4.8028   4.8164

          k = 0.0000-0.5000 0.0000 ( 58486 PWs)   bands (ev):

    -5.3501  -5.3501  -5.2150  -5.2150  -4.9938  -4.9938  -4.6894  -4.6894
    -4.3010  -4.3010  -3.8263  -3.8262  -3.2704  -3.2704  -2.6372  -2.6372
    -1.9305  -1.9305  -1.1481  -1.1481  -0.2959  -0.2959   0.6208   0.6208
     1.5962   1.5962   2.7052   2.7052   2.7617   2.7618   2.8878   2.8878
     3.0943   3.0943   3.1552   3.1552   3.3786   3.3786   3.7421   3.7421
     4.1210   4.1211   4.1876   4.1877   4.3409   4.3409   4.5759   4.5759
     4.7115   4.7115

          k = 0.0625 0.0625 0.0000 ( 58425 PWs)   bands (ev):

    -7.5512  -7.4143  -7.1899  -6.8811  -6.4871  -6.0056  -5.4418  -4.7994
    -4.0823  -3.2881  -2.4223  -1.4892  -0.4921   0.1214   0.1214   0.2497
     0.2497   0.4599   0.4599   0.6454   0.7489   0.7489   1.1122   1.1173
     1.1173   1.5668   1.5668   2.0979   2.0979   2.6858   2.6858   2.7114
     2.7115   2.8164   2.8164   2.8812   3.0275   3.0275   3.2621   3.2621
     3.4259   3.4259   3.6653   3.6654   4.0274   4.1434   4.1434   4.2005
     4.2005   4.7088

          k = 0.0625 0.1250 0.0000 ( 58434 PWs)   bands (ev):

    -7.4440  -7.3071  -7.0828  -6.7743  -6.3805  -5.8993  -5.3359  -4.6940
    -3.9774  -3.1837  -2.3185  -1.3862  -0.7826  -0.6524  -0.4391  -0.3899
    -0.1461   0.2217   0.2272   0.3503   0.5588   0.6846   0.7471   0.8476
     1.2115   1.2149   1.2153   1.6744   1.8212   2.2251   2.5149   2.7884
     2.8146   2.9173   2.9807   3.0835   3.2870   3.4061   3.4854   3.7745
     3.8674   3.9077   4.0746   4.1239   4.1657   4.2439   4.2999   4.3770
     4.7644   4.7844

          k = 0.0625 0.1875 0.0000 ( 58441 PWs)   bands (ev):

    -7.2653  -7.1286  -6.9046  -6.5964  -6.2031  -5.7225  -5.1597  -4.5185
    -3.8027  -3.0099  -2.1458  -1.6812  -1.5497  -1.3344  -1.2146  -1.0384
    -0.6609  -0.2199  -0.1998   0.3384   0.3886   0.5172   0.7246   0.9163
     0.9496   1.0128   1.3770   1.3904   1.6171   1.8783   2.3798   2.4041
     2.9544   2.9796   3.0444   3.1448   3.2188   3.2850   3.6553   3.7115
     4.0180   4.2103   4.2805   4.4010   4.4577   4.9685   4.9764   5.0804
     5.1305   5.2216

          k = 0.0625 0.2500 0.0000 ( 58463 PWs)   bands (ev):

    -7.0156  -6.8791  -6.6555  -6.3477  -5.9551  -5.4752  -4.9133  -4.2731
    -3.5585  -2.7670  -2.5320  -2.3995  -2.1826  -1.9044  -1.8844  -1.5039
    -1.0390  -0.9749  -0.4950   0.0177   0.1234   0.6221   0.7454   0.8124
     0.9571   1.1525   1.2538   1.5147   1.6085   1.7002   2.0840   2.4147
     2.6102   3.1519   3.2133   3.2525   3.3055   3.3688   3.6918   3.8888
     3.8926   4.2492   4.3418   4.4706   4.6474   4.7008   4.8983   5.0579
     5.1566   5.1950

          k = 0.0625 0.3125 0.0000 ( 58435 PWs)   bands (ev):

    -6.6952  -6.5589  -6.3358  -6.0287  -5.6368  -5.1579  -4.5972  -3.9583
    -3.3242  -3.2452  -3.1909  -2.9727  -2.6726  -2.4554  -2.2897  -1.8218
    -1.5946  -1.2740  -0.6674  -0.6505   0.0441   0.3224   0.8062   0.9226
     1.0473   1.2630   1.4548   1.4999   1.7164   1.9058   1.9331   2.3802
     2.5535   2.9096   3.3758   3.4691   3.5176   3.6207   3.8187   3.9010
     4.1814   4.1828   4.1875   4.2000   4.4370   4.5428   4.7085   4.7266
     4.8600   4.9024

          k = 0.0625 0.3750 0.0000 ( 58445 PWs)   bands (ev):

    -6.3045  -6.1686  -5.9460  -5.6396  -5.2488  -4.7711  -4.2118  -4.0536
    -3.9196  -3.7003  -3.5745  -3.3986  -3.0136  -2.8632  -2.5431  -2.0755
    -1.9923  -1.3649  -1.2171  -0.6653  -0.2928   0.1081   0.6932   0.9442
     1.2858   1.4169   1.5956   1.8208   1.9016   1.9317   2.2684   2.2949
     2.7408   2.8264   3.2712   3.3841   3.5391   3.6979   3.7526   3.8739
     4.0400   4.0414   4.0827   4.1285   4.2588   4.3824   4.4100   4.5451
     4.5641   4.8557

          k = 0.0625 0.4375 0.0000 ( 58460 PWs)   bands (ev):

    -5.8442  -5.7086  -5.4867  -5.1813  -4.7916  -4.7176  -4.5831  -4.3628
    -4.3153  -4.0597  -3.7577  -3.6729  -3.2002  -3.1223  -2.6468  -2.4133
    -2.0163  -1.6281  -1.3129  -0.7727  -0.5346   0.1480   0.3121   1.1285
     1.2165   1.7176   1.8247   2.0772   2.2290   2.2389   2.3590   2.6927
     2.7247   2.7997   2.9232   3.1284   3.1741   3.2999   3.4159   3.7083
     3.7417   3.7830   4.2330   4.3034   4.3125   4.4232   4.4613   4.6773
     4.7631   4.9723

          k = 0.0625-0.5000 0.0000 ( 58486 PWs)   bands (ev):

    -5.3149  -5.3149  -5.1798  -5.1798  -4.9586  -4.9586  -4.6543  -4.6543
    -4.2660  -4.2660  -3.7914  -3.7914  -3.2357  -3.2357  -2.6026  -2.6026
    -1.8961  -1.8961  -1.1140  -1.1140  -0.2623  -0.2623   0.6531   0.6531
     1.6213   1.6213   2.1984   2.1984   2.3659   2.3659   2.5669   2.5670
     2.7772   2.7772   2.8543   2.8543   3.1886   3.1886   3.2223   3.2223
     3.6737   3.6737   4.1997   4.1997   4.5917   4.5917   4.8026   4.8026
     4.9107   4.9107

          k = 0.1250 0.1250 0.0000 ( 58417 PWs)   bands (ev):

    -7.3368  -7.2000  -6.9759  -6.6675  -6.2741  -5.7932  -5.2302  -4.5886
    -3.8726  -3.0794  -2.2149  -1.2832  -0.6809  -0.6809  -0.5509  -0.5509
    -0.3381  -0.3381  -0.2879  -0.0455  -0.0455   0.3271   0.3271   0.7806
     0.7806   0.8486   1.3108   1.3232   1.3232   1.9583   1.9583   2.6263
     2.6263   3.0780   3.3702   3.3702   3.8722   3.8722   3.9752   3.9752
     4.1522   4.1523   4.2144   4.2180   4.2180   4.5970   4.5970   4.8971
     4.8971   5.1520

          k = 0.1250 0.1875 0.0000 ( 58408 PWs)   bands (ev):

    -7.1583  -7.0216  -6.7978  -6.4898  -6.0968  -5.6165  -5.0541  -4.4133
    -3.6980  -2.9058  -2.0423  -1.5785  -1.4471  -1.2321  -1.1119  -0.9366
    -0.5602  -0.5116  -0.3814  -0.1725  -0.1181  -0.0970   0.1208   0.4361
     0.4918   0.9598   1.0173   1.0522   1.4761   1.5247   1.7681   2.1176
     2.5152   2.7987   3.2350   3.3251   3.5584   4.0174   4.1327   4.1559
     4.3362   4.3728   4.5416   4.7162   4.8657   5.0317   5.0557   5.0681
     5.0829   5.1417

          k = 0.1250 0.2500 0.0000 ( 58479 PWs)   bands (ev):

    -6.9087  -6.7723  -6.5488  -6.2413  -5.8489  -5.3694  -4.8079  -4.1681
    -3.4540  -2.6631  -2.4285  -2.2961  -2.0795  -1.8011  -1.7815  -1.4015
    -0.9374  -0.8724  -0.3957  -0.2749  -0.1449   0.0627   0.1191   0.2217
     0.3543   0.7392   0.8995   1.2367   1.2524   1.7051   1.7073   1.7437
     2.3460   2.5339   3.0261   3.4180   3.4185   3.7807   4.0681   4.1057
     4.2223   4.2526   4.3262   4.6054   4.6091   4.6183   4.6670   4.7252
     4.9431   4.9947

          k = 0.1250 0.3125 0.0000 ( 58443 PWs)   bands (ev):

    -6.5885  -6.4524  -6.2293  -5.9225  -5.5309  -5.0523  -4.4920  -3.8535
    -3.2201  -3.1409  -3.0869  -2.8689  -2.5690  -2.3517  -2.1864  -1.7190
    -1.4916  -1.1720  -0.5654  -0.5502   0.0287   0.1258   0.1703   0.3654
     0.4229   0.6676   0.8688   1.1108   1.5112   1.5518   1.7764   2.0039
     2.0411   2.6500   2.6695   3.1879   3.3330   3.3636   3.5819   3.6118
     3.8736   3.8816   4.0935   4.2452   4.4441   4.6911   4.7448   4.8025
     4.9471   4.9672

          k = 0.1250 0.3750 0.0000 ( 58427 PWs)   bands (ev):

    -6.1981  -6.0623  -5.8398  -5.5337  -5.1431  -4.6658  -4.1068  -3.9488
    -3.8150  -3.5958  -3.4700  -3.2943  -2.9097  -2.7592  -2.4395  -1.9722
    -1.8893  -1.2627  -1.1146  -0.5647  -0.1915   0.2014   0.3993   0.5239
     0.7433   0.7918   0.9430   1.1680   1.4258   1.8760   1.9033   1.9807
     2.3627   2.4100   2.5591   2.6851   2.8924   2.9200   3.0385   3.1821
     3.5517   3.6815   4.0046   4.0498   4.1906   4.3705   4.5391   4.5586
     4.9465   5.0958

          k = 0.1250 0.4375 0.0000 ( 58425 PWs)   bands (ev):

    -5.7381  -5.6027  -5.3809  -5.0757  -4.6863  -4.6124  -4.4780  -4.2578
    -4.2103  -3.9549  -3.6531  -3.5684  -3.0961  -3.0182  -2.5431  -2.3097
    -1.9132  -1.5252  -1.2107  -0.6709  -0.4340   0.2476   0.4058   0.8319
     0.9647   1.1215   1.2187   1.4039   1.4915   1.8568   1.8725   2.0612
     2.2621   2.2911   2.3374   2.4030   2.5522   2.7947   2.8387   2.9233
     3.3782   3.4270   3.4430   3.8547   3.9071   4.1422   4.5144   4.5954
     4.8968   5.2100

          k = 0.1250-0.5000 0.0000 ( 58430 PWs)   bands (ev):

    -5.2092  -5.2092  -5.0743  -5.0743  -4.8532  -4.8532  -4.5491  -4.5491
    -4.1611  -4.1610  -3.6868  -3.6868  -3.1315  -3.1315  -2.4989  -2.4989
    -1.7931  -1.7931  -1.0119  -1.0119  -0.1621  -0.1621   0.7457   0.7458
     1.3334   1.3334   1.4253   1.4253   1.7051   1.7051   1.7916   1.7916
     1.9878   1.9878   2.3558   2.3558   2.8077   2.8077   2.8705   2.8705
     3.2870   3.2870   3.3492   3.3492   3.9577   3.9577   4.6272   4.6272
     5.0317   5.0317

          k = 0.1875 0.1875 0.0000 ( 58407 PWs)   bands (ev):

    -6.9800  -6.8435  -6.6199  -6.3123  -5.9197  -5.4399  -4.8782  -4.2381
    -3.5237  -2.7324  -1.8700  -1.4076  -1.4076  -1.2765  -1.2765  -1.0620
    -1.0620  -0.9408  -0.7671  -0.7671  -0.3916  -0.3916   0.0512   0.0652
     0.0652   0.6140   0.6140   1.1848   1.2557   1.2557   1.6411   1.9296
     1.9297   2.6876   2.6876   3.3511   3.5142   3.5142   4.0143   4.0633
     4.2777   4.3965   4.3965   4.5703   4.6723   4.9482   5.1931   5.1931
     5.2343   5.2344

          k = 0.1875 0.2500 0.0000 ( 58409 PWs)   bands (ev):

    -6.7308  -6.5945  -6.3712  -6.0641  -5.6722  -5.1931  -4.6323  -3.9932
    -3.2800  -2.4900  -2.2562  -2.1240  -1.9077  -1.6291  -1.6104  -1.2317
    -1.1686  -1.0373  -0.8281  -0.7644  -0.7019  -0.5317  -0.2288  -0.1581
     0.2875   0.3144   0.3931   0.8823   1.1126   1.4169   1.4802   1.8661
     1.8715   2.1670   2.6905   2.9353   3.0723   3.2550   3.4749   3.5703
     3.7653   3.7676   3.7809   4.1402   4.4887   4.5862   4.7001   4.8507
     5.1206   5.3400

          k = 0.1875 0.3125 0.0000 ( 58436 PWs)   bands (ev):

    -6.4109  -6.2749  -6.0521  -5.7456  -5.3545  -4.8765  -4.3168  -3.6790
    -3.0467  -2.9673  -2.9137  -2.6959  -2.3965  -2.1791  -2.0146  -1.5482
    -1.3203  -1.0037  -0.8620  -0.7310  -0.5229  -0.3957  -0.3818  -0.2287
     0.1594   0.3022   0.5893   0.6572   1.1091   1.1704   1.7014   1.7745
     1.9473   2.1644   2.3861   2.4594   2.5133   2.7216   2.8483   3.0123
     3.2195   3.3829   3.8081   3.8371   4.0083   4.0478   4.3733   4.8966
     4.9219   4.9580

          k = 0.1875 0.3750 0.0000 ( 58449 PWs)   bands (ev):

    -6.0210  -5.8853  -5.6631  -5.3573  -4.9672  -4.4904  -3.9321  -3.7745
    -3.6408  -3.4219  -3.2960  -3.1208  -2.7366  -2.5862  -2.2672  -1.8002
    -1.7180  -1.0934  -0.9441  -0.4884  -0.4097  -0.3501  -0.1499  -0.0237
     0.1547   0.3396   0.5938   0.9496   1.0032   1.2452   1.5361   1.6274
     1.8230   2.0243   2.1426   2.1459   2.1485   2.3157   2.5307   2.6884
     2.8353   3.1063   3.1449   3.6002   3.6752   4.1713   4.2843   4.3621
     4.4900   4.6280

          k = 0.1875 0.4375 0.0000 ( 58448 PWs)   bands (ev):

    -5.5615  -5.4263  -5.2047  -4.8999  -4.5109  -4.4372  -4.3029  -4.0830
    -4.0355  -3.7805  -3.4789  -3.3945  -2.9227  -2.8448  -2.3705  -2.1373
    -1.7417  -1.3541  -1.0411  -0.5021  -0.2717  -0.0479   0.0771   0.2981
     0.4083   0.4868   0.7119   0.9847   1.0244   1.1111   1.3995   1.4373
     1.4653   1.5162   1.6832   1.9742   2.0526   2.4644   2.5060   2.5423
     2.6046   2.9581   3.0508   3.2481   3.6241   3.6616   3.9226   4.1283
     4.3328   4.7905

          k = 0.1875-0.5000 0.0000 ( 58426 PWs)   bands (ev):

    -5.0333  -5.0333  -4.8985  -4.8985  -4.6777  -4.6777  -4.3739  -4.3739
    -3.9863  -3.9863  -3.5126  -3.5126  -2.9580  -2.9580  -2.3263  -2.3263
    -1.6217  -1.6217  -0.8425  -0.8425   0.0002   0.0002   0.4539   0.4540
     0.5876   0.5876   0.7375   0.7376   1.0111   1.0111   1.1179   1.1179
     1.4850   1.4850   1.9046   1.9047   1.9578   1.9579   2.4705   2.4706
     3.0398   3.0399   3.0760   3.0760   3.4639   3.4639   3.7818   3.7818
     4.5389   4.5390

          k = 0.2500 0.2500 0.0000 ( 58475 PWs)   bands (ev):

    -6.4819  -6.3459  -6.1230  -5.8163  -5.4250  -4.9468  -4.3868  -3.7488
    -3.0367  -2.2481  -2.0154  -2.0154  -1.8836  -1.8836  -1.6679  -1.6679
    -1.3889  -1.3714  -1.3713  -0.9936  -0.9936  -0.5340  -0.5339  -0.4639
     0.0186   0.0186   0.5217   0.6609   0.6609   1.3396   1.3396   1.6340
     2.0982   2.1027   2.1027   2.3260   2.4536   2.6621   2.9366   2.9366
     2.9531   3.3240   3.7787   3.8349   3.8349   3.9451   4.3152   4.7899
     4.7899   4.8995

          k = 0.2500 0.3125 0.0000 ( 58472 PWs)   bands (ev):

    -6.1627  -6.0269  -5.8044  -5.4984  -5.1079  -4.6306  -4.0718  -3.4352
    -2.8043  -2.7246  -2.6716  -2.4543  -2.1556  -1.9379  -1.7752  -1.7064
    -1.5745  -1.3647  -1.3051  -1.0810  -1.0662  -0.7670  -0.6904  -0.2153
    -0.1596  -0.1411   0.3516   0.5777   0.8149   0.9543   1.3354   1.5012
     1.6452   1.6989   1.9005   2.0105   2.1644   2.1924   2.3985   2.4180
     2.5657   3.0230   3.0508   3.2694   3.5539   3.9826   4.1639   4.1992
     4.2360   4.8495

          k = 0.2500 0.3750 0.0000 ( 58475 PWs)   bands (ev):

    -5.7734  -5.6379  -5.4160  -5.1108  -4.7213  -4.2452  -3.6878  -3.5308
    -3.3973  -3.1788  -3.0528  -2.8782  -2.4949  -2.3443  -2.0267  -1.5600
    -1.4801  -1.3298  -1.1983  -0.9893  -0.8551  -0.7066  -0.6934  -0.3035
    -0.1662   0.1918   0.2054   0.6384   0.7107   0.8328   0.9180   1.2089
     1.2662   1.3159   1.4827   1.4933   1.8634   2.0043   2.3176   2.3428
     2.3882   2.7601   2.7678   2.8641   3.3555   3.4761   3.5996   4.1481
     4.4695   4.4751

          k = 0.2500 0.4375 0.0000 ( 58487 PWs)   bands (ev):

    -5.3147  -5.1796  -4.9584  -4.6541  -4.2658  -4.1923  -4.0583  -3.8387
    -3.7911  -3.5367  -3.2355  -3.1514  -2.6805  -2.6026  -2.1296  -1.8965
    -1.5030  -1.1157  -0.8863  -0.8155  -0.7487  -0.5463  -0.2709  -0.2406
    -0.0602   0.1938   0.1944   0.3284   0.4768   0.6099   0.7438   0.8418
     0.8598   1.1449   1.2281   1.6397   1.7001   1.7464   1.7597   2.2159
     2.4492   2.7115   2.7757   2.8223   3.2015   3.2168   3.5314   3.7836
     4.1131   4.2360

          k = 0.2500-0.5000 0.0000 ( 58432 PWs)   bands (ev):

    -4.7874  -4.7874  -4.6528  -4.6528  -4.4323  -4.4323  -4.1291  -4.1290
    -3.7421  -3.7421  -3.2692  -3.2692  -2.7157  -2.7157  -2.0853  -2.0853
    -1.3829  -1.3828  -0.6109  -0.6109  -0.3764  -0.3764  -0.2509  -0.2509
    -0.0292  -0.0292   0.1571   0.1571   0.3774   0.3774   0.6588   0.6588
     1.1132   1.1132   1.1806   1.1806   1.6520   1.6520   2.1327   2.1327
     2.2839   2.2840   2.9277   2.9277   3.2993   3.2993   3.5966   3.5967
     3.8103   3.8103

          k = 0.3125 0.3125 0.0000 ( 58493 PWs)   bands (ev):

    -5.8441  -5.7085  -5.4866  -5.1812  -4.7915  -4.3152  -3.7576  -3.1223
    -2.4933  -2.4933  -2.4134  -2.3610  -2.3610  -2.1444  -2.1444  -1.8466
    -1.8466  -1.6287  -1.4672  -1.4672  -1.0053  -1.0053  -0.7749  -0.4502
    -0.4502   0.1377   0.1907   0.1907   0.7683   0.8531   0.8733   0.8733
     1.1445   1.1995   1.4292   1.6399   1.6399   1.7995   2.2540   2.2760
     2.4776   2.4777   2.6941   2.8010   3.3806   3.3806   3.4134   4.0856
     4.3421   4.3422

          k = 0.3125 0.3750 0.0000 ( 58529 PWs)   bands (ev):

    -5.4556  -5.3204  -5.0990  -4.7944  -4.4057  -3.9306  -3.3745  -3.2180
    -3.0849  -2.8669  -2.7409  -2.5672  -2.1855  -2.1142  -2.0342  -1.9819
    -1.7714  -1.7137  -1.4716  -1.2526  -1.1735  -1.0941  -0.6175  -0.5448
    -0.4067  -0.0526   0.0632   0.1723   0.1974   0.3456   0.5542   0.6089
     0.7290   0.9331   1.0979   1.2480   1.5061   1.5699   1.7651   2.0237
     2.0868   2.6428   2.6548   2.6937   2.8784   3.0699   3.4042   3.5905
     3.8119   4.1638

          k = 0.3125 0.4375 0.0000 ( 58504 PWs)   bands (ev):

    -4.9980  -4.8632  -4.6424  -4.3387  -3.9512  -3.8781  -3.7443  -3.5252
    -3.4776  -3.2239  -2.9233  -2.8396  -2.3701  -2.2920  -1.8220  -1.6677
    -1.5884  -1.5357  -1.3261  -1.1949  -1.0289  -0.8150  -0.6382  -0.5758
    -0.5026  -0.4499  -0.2278  -0.1456  -0.0416   0.1741   0.2995   0.3779
     0.4606   0.9161   0.9781   0.9837   1.1481   1.4560   1.6746   1.9324
     2.0561   2.0889   2.4403   2.7328   3.0266   3.1019   3.2744   3.3999
     3.6172   4.1512

          k = 0.3125-0.5000 0.0000 ( 58504 PWs)   bands (ev):

    -4.4718  -4.4718  -4.3375  -4.3375  -4.1175  -4.1175  -3.8149  -3.8149
    -3.4288  -3.4288  -2.9570  -2.9570  -2.4050  -2.4050  -1.7770  -1.7770
    -1.1547  -1.1547  -1.0872  -1.0872  -1.0172  -1.0172  -0.8136  -0.8135
    -0.5073  -0.5073  -0.3277  -0.3277  -0.0768  -0.0767   0.3439   0.3439
     0.5712   0.5713   0.8805   0.8805   1.4783   1.4783   1.4968   1.4969
     2.1880   2.1880   2.4458   2.4459   2.9573   2.9573   3.5205   3.5205
     3.8563   3.8563

          k = 0.3750 0.3750 0.0000 ( 58542 PWs)   bands (ev):

    -5.0682  -4.9334  -4.7125  -4.4087  -4.0210  -3.5472  -2.9925  -2.8368
    -2.8368  -2.7042  -2.7042  -2.4869  -2.4869  -2.3609  -2.1883  -2.1883
    -1.8077  -1.8077  -1.6570  -1.3441  -1.3441  -0.8831  -0.7876  -0.7876
    -0.6425  -0.5165  -0.2943  -0.1483  -0.1483  -0.1079   0.1060   0.3942
     0.5374   0.5374   0.8500   0.9105   1.3064   1.3064   1.3902   1.8654
     2.0235   2.1465   2.1465   2.6675   3.0358   3.0521   3.0521   3.3341
     3.5525   4.0166

          k = 0.3750 0.4375 0.0000 ( 58542 PWs)   bands (ev):

    -4.6118  -4.4773  -4.2571  -3.9542  -3.5678  -3.4950  -3.3616  -3.1431
    -3.0955  -2.8428  -2.5429  -2.4603  -2.3877  -2.2551  -2.0441  -1.9873
    -1.9143  -1.7435  -1.4457  -1.3648  -1.2895  -1.2233  -1.1521  -0.9479
    -0.8875  -0.8152  -0.6414  -0.4617  -0.3242  -0.2129  -0.0997   0.2101
     0.2854   0.4355   0.6634   0.7474   0.9811   1.3438   1.3645   1.4972
     1.7587   2.0565   2.3125   2.3888   2.6154   2.8266   3.3268   3.3883
     3.5510   3.7268

          k = 0.3750-0.5000 0.0000 ( 58554 PWs)   bands (ev):

    -4.0871  -4.0870  -3.9531  -3.9531  -3.7337  -3.7336  -3.4319  -3.4319
    -3.0470  -3.0470  -2.5768  -2.5768  -2.0277  -2.0277  -1.8716  -1.8716
    -1.7394  -1.7394  -1.5293  -1.5293  -1.3994  -1.3994  -1.2314  -1.2314
    -0.8402  -0.8402  -0.7050  -0.7050  -0.3496  -0.3495   0.0952   0.0952
     0.1768   0.1768   0.7829   0.7829   0.9465   0.9465   1.4753   1.4753
     1.8558   1.8559   2.2423   2.2424   2.8280   2.8281   3.0778   3.0778
     3.9554   3.9554

          k = 0.4375 0.4375 0.0000 ( 58544 PWs)   bands (ev):

    -4.1568  -4.0227  -3.8032  -3.5013  -3.1162  -3.0437  -3.0437  -2.9108
    -2.9108  -2.6932  -2.6932  -2.6458  -2.3940  -2.3940  -2.0964  -2.0128
    -2.0128  -1.9397  -1.8074  -1.5972  -1.5482  -1.5482  -1.4677  -1.2991
    -0.9908  -0.9908  -0.9078  -0.7725  -0.4177  -0.3526  -0.3526   0.0270
     0.1096   0.3349   0.3349   0.7158   0.8791   1.1053   1.1053   1.4086
     1.7890   1.9468   1.9468   2.1761   2.7617   2.8539   2.8539   3.0120
     3.8199   3.8200

          k = 0.4375-0.5000 0.0000 ( 58586 PWs)   bands (ev):

    -3.6338  -3.6337  -3.5002  -3.5002  -3.2815  -3.2815  -2.9809  -2.9809
    -2.5980  -2.5979  -2.5249  -2.5249  -2.3921  -2.3921  -2.1808  -2.1808
    -2.1245  -2.1245  -1.8798  -1.8798  -1.5821  -1.5821  -1.5006  -1.5006
    -1.0229  -1.0229  -0.9508  -0.9507  -0.4606  -0.4605  -0.2361  -0.2361
     0.1505   0.1505   0.5281   0.5281   0.8471   0.8471   1.3628   1.3628
     1.6257   1.6257   2.2553   2.2554   2.4833   2.4833   3.1944   3.1944
     3.4198   3.4199

          k =-0.5000-0.5000 0.0000 ( 58632 PWs)   bands (ev):

    -3.1127  -3.1127  -3.1127  -3.1127  -2.9798  -2.9798  -2.9798  -2.9798
    -2.7621  -2.7621  -2.7621  -2.7621  -2.4628  -2.4628  -2.4628  -2.4627
    -2.0813  -2.0813  -2.0813  -2.0812  -1.6164  -1.6164  -1.6164  -1.6163
    -1.0587  -1.0587  -1.0587  -1.0587  -0.4209  -0.4209  -0.4209  -0.4209
     0.2672   0.2672   0.2672   0.2672   1.0381   1.0381   1.0381   1.0381
     1.8801   1.8801   1.8801   1.8801   2.7876   2.7877   2.7877   2.7877
     3.7542   3.7542

     the Fermi energy is     3.5828 ev

!    total energy              =    -348.92491229 Ry
     Harris-Foulkes estimate   =    -348.92491281 Ry
     estimated scf accuracy    <       0.00000072 Ry

     The total energy is the sum of the following terms:

     one-electron contribution =   -2741.61593223 Ry
     hartree contribution      =    1399.11074023 Ry
     xc contribution           =    -280.56505521 Ry
     ewald contribution        =    1274.14458058 Ry
     smearing contrib. (-TS)   =       0.00075433 Ry

     convergence has been achieved in   4 iterations

     Forces acting on atoms (Ry/au):


     negative rho (up, down):  7.173E-06 0.000E+00
     atom    1 type  1   force =     0.00000000    0.00000000   -0.00286748
     atom    2 type  1   force =     0.00000000    0.00000000   -0.00286725
     atom    3 type  1   force =     0.00000000    0.00000000    0.00162419
     atom    4 type  1   force =     0.00000000    0.00000000    0.00162419
     atom    5 type  1   force =     0.00000000    0.00000000    0.00072317
     atom    6 type  1   force =     0.00000000    0.00000000    0.00072305
     atom    7 type  1   force =     0.00000000    0.00000000    0.00079464
     atom    8 type  1   force =     0.00000000    0.00000000    0.00079464
     atom    9 type  1   force =     0.00000000    0.00000000   -0.00027779
     atom   10 type  1   force =     0.00000000    0.00000000   -0.00027539
     atom   11 type  1   force =     0.00000000    0.00000000   -0.00028988
     atom   12 type  1   force =     0.00000000    0.00000000   -0.00028988
     atom   13 type  1   force =     0.00000000    0.00000000   -0.00005723
     atom   14 type  1   force =     0.00000000    0.00000000   -0.00005556
     atom   15 type  1   force =     0.00000000    0.00000000    0.00006614
     atom   16 type  1   force =     0.00000000    0.00000000    0.00006614
     atom   17 type  1   force =     0.00000000    0.00000000    0.00026771
     atom   18 type  1   force =     0.00000000    0.00000000    0.00026619
     atom   19 type  1   force =     0.00000000    0.00000000    0.00029483
     atom   20 type  1   force =     0.00000000    0.00000000    0.00029483
     atom   21 type  1   force =     0.00000000    0.00000000   -0.00079578
     atom   22 type  1   force =     0.00000000    0.00000000   -0.00079828
     atom   23 type  1   force =     0.00000000    0.00000000   -0.00073891
     atom   24 type  1   force =     0.00000000    0.00000000   -0.00073891
     atom   25 type  1   force =     0.00000000    0.00000000   -0.00160162
     atom   26 type  1   force =     0.00000000    0.00000000   -0.00160146
     atom   27 type  1   force =     0.00000000    0.00000000    0.00285784
     atom   28 type  1   force =     0.00000000    0.00000000    0.00285784

     Total force =     0.006965     Total SCF correction =     0.000977
     SCF correction compared to forces is large: reduce conv_thr to get better values


     entering subroutine stress ...


     negative rho (up, down):  7.173E-06 0.000E+00
          total   stress  (Ry/bohr**3)                   (kbar)     P=   -4.24
  -0.00005102   0.00000000   0.00000000         -7.51      0.00      0.00
   0.00000000  -0.00005102   0.00000000          0.00     -7.51      0.00
   0.00000000   0.00000000   0.00001551          0.00      0.00      2.28


     number of scf cycles    =   2
     number of bfgs steps    =   1

     energy   old            =    -348.9248543055 Ry
     energy   new            =    -348.9249122920 Ry

     CASE: energy  _new < energy  _old


     WARNING: bfgs curvature condition failed, Theta= 0.896
     new trust radius        =       0.0034939936 bohr
     new conv_thr            =       0.0000000100 Ry


ATOMIC_POSITIONS (crystal)
Al       0.000000000   0.000000000  -0.000079736
Al       0.500000000   0.500000000  -0.000079732
Al       0.500000000   0.000000000   0.045501657
Al       0.000000000   0.500000000   0.045501657
Al       0.000000000   0.000000000   0.090926904
Al       0.500000000   0.500000000   0.090926897
Al       0.500000000   0.000000000   0.136385782
Al       0.000000000   0.500000000   0.136385782
Al       0.000000000   0.000000000   0.181810153
Al       0.500000000   0.500000000   0.181810220
Al       0.500000000   0.000000000   0.227265017
Al       0.000000000   0.500000000   0.227265017
Al       0.000000000   0.000000000   0.272725841
Al       0.500000000   0.500000000   0.272725887
Al       0.500000000   0.000000000   0.318183508
Al       0.000000000   0.500000000   0.318183508
Al       0.000000000   0.000000000   0.363643411
Al       0.500000000   0.500000000   0.363643369
Al       0.500000000   0.000000000   0.409099464
Al       0.000000000   0.500000000   0.409099464
Al       0.000000000   0.000000000   0.454523245
Al       0.500000000   0.500000000   0.454523176
Al       0.500000000   0.000000000   0.499981737
Al       0.000000000   0.500000000   0.499981737
Al       0.000000000   0.000000000   0.545408101
Al       0.500000000   0.500000000   0.545408109
Al       0.500000000   0.000000000   0.590988549
Al       0.000000000   0.500000000   0.590988549



     Writing output data file Al_100_7_4.save
     NEW-OLD atomic charge density approx. for the potential

     negative rho (up, down):  7.025E-06 0.000E+00

     total cpu time spent up to now is    14186.0 secs

     Self-consistent Calculation

     iteration #  1     ecut=    80.00 Ry     beta=0.30
     Davidson diagonalization with overlap
     ethr =  1.00E-06,  avg # of iterations =  2.0

     negative rho (up, down):  5.088E-06 0.000E+00

     total cpu time spent up to now is    14832.9 secs

     total energy              =    -348.92497496 Ry
     Harris-Foulkes estimate   =    -348.92498271 Ry
     estimated scf accuracy    <       0.00102833 Ry

     iteration #  2     ecut=    80.00 Ry     beta=0.30
     Davidson diagonalization with overlap
     ethr =  1.22E-06,  avg # of iterations =  1.0

     negative rho (up, down):  2.006E-06 0.000E+00

     total cpu time spent up to now is    15335.5 secs

     total energy              =    -348.92495636 Ry
     Harris-Foulkes estimate   =    -348.92497748 Ry
     estimated scf accuracy    <       0.00061820 Ry

     iteration #  3     ecut=    80.00 Ry     beta=0.30
     Davidson diagonalization with overlap
     ethr =  7.36E-07,  avg # of iterations =  1.0

     negative rho (up, down):  2.555E-06 0.000E+00

     total cpu time spent up to now is    15833.5 secs

     total energy              =    -348.92496780 Ry
     Harris-Foulkes estimate   =    -348.92496835 Ry
     estimated scf accuracy    <       0.00001728 Ry

     iteration #  4     ecut=    80.00 Ry     beta=0.30
     Davidson diagonalization with overlap
     ethr =  2.06E-08,  avg # of iterations =  2.7

     negative rho (up, down):  2.852E-06 0.000E+00

     total cpu time spent up to now is    16375.9 secs

     total energy              =    -348.92496854 Ry
[...]
    -3.6926  -2.9029  -2.0425  -1.5736  -1.4430  -1.2185  -1.1133  -0.9187
    -0.5419  -0.5067  -0.3773  -0.1580  -0.1181  -0.0771   0.1385   0.4550
     0.5093   0.9824   1.0106   1.0672   1.4710   1.5430   1.7736   2.1299
     2.5179   2.8049   3.2371   3.3251   3.5620   4.0222   4.1373   4.1607
     4.3345   4.3733   4.5492   4.7332   4.8707   5.0348   5.0604   5.0857
     5.0950   5.1445

          k = 0.1250 0.2500 0.0000 ( 58479 PWs)   bands (ev):

    -6.9038  -6.7680  -6.5353  -6.2236  -5.8310  -5.3488  -4.7890  -4.1563
    -3.4486  -2.6602  -2.4236  -2.2920  -2.0659  -1.8012  -1.7637  -1.3834
    -0.9165  -0.8738  -0.3763  -0.2701  -0.1410   0.0761   0.1191   0.2336
     0.3715   0.7586   0.9093   1.2458   1.2551   1.7023   1.7081   1.7632
     2.3573   2.5350   3.0316   3.4179   3.4207   3.7841   4.0714   4.1107
     4.2249   4.2574   4.3402   4.6053   4.6118   4.6341   4.6803   4.7265
     4.9606   5.0134

          k = 0.1250 0.3125 0.0000 ( 58443 PWs)   bands (ev):

    -6.5836  -6.4481  -6.2158  -5.9048  -5.5130  -5.0317  -4.4731  -3.8417
    -3.2151  -3.1355  -3.0827  -2.8553  -2.5512  -2.3488  -2.1684  -1.6982
    -1.4918  -1.1528  -0.5667  -0.5381   0.0335   0.1304   0.1753   0.3784
     0.4230   0.6863   0.8784   1.1237   1.5322   1.5453   1.7763   1.9990
     2.0607   2.6626   2.6686   3.1918   3.3390   3.3676   3.5958   3.6128
     3.8849   3.8919   4.0968   4.2639   4.4466   4.7125   4.7492   4.8025
     4.9588   4.9658

          k = 0.1250 0.3750 0.0000 ( 58427 PWs)   bands (ev):

    -6.1932  -6.0580  -5.8263  -5.5160  -5.1252  -4.6452  -4.0879  -3.9439
    -3.8108  -3.5823  -3.4582  -3.2766  -2.8916  -2.7538  -2.4188  -1.9692
    -1.8701  -1.2507  -1.1147  -0.5591  -0.1927   0.2043   0.4044   0.5276
     0.7575   0.7920   0.9548   1.1749   1.4438   1.8972   1.8974   1.9794
     2.3582   2.4300   2.5630   2.6887   2.9061   2.9215   3.0503   3.2003
     3.5702   3.6868   4.0263   4.0457   4.1937   4.3712   4.5575   4.5592
     4.9499   5.0995

          k = 0.1250 0.4375 0.0000 ( 58425 PWs)   bands (ev):

    -5.7332  -5.5984  -5.3673  -5.0580  -4.6683  -4.6075  -4.4738  -4.2443
    -4.1897  -3.9372  -3.6341  -3.5504  -3.0754  -3.0063  -2.5240  -2.3042
    -1.9012  -1.5222  -1.2051  -0.6709  -0.4309   0.2464   0.4059   0.8368
     0.9693   1.1323   1.2190   1.4057   1.5091   1.8751   1.8767   2.0653
     2.2758   2.3004   2.3497   2.3970   2.5702   2.7899   2.8583   2.9418
     3.3997   3.4216   3.4552   3.8511   3.9273   4.1481   4.5272   4.5983
     4.8999   5.2025

          k = 0.1250-0.5000 0.0000 ( 58430 PWs)   bands (ev):

    -5.2043  -5.2043  -5.0700  -5.0700  -4.8397  -4.8397  -4.5314  -4.5314
    -4.1431  -4.1431  -3.6661  -3.6661  -3.1125  -3.1125  -2.4870  -2.4870
    -1.7875  -1.7875  -1.0088  -1.0088  -0.1620  -0.1620   0.7450   0.7450
     1.3382   1.3382   1.4291   1.4291   1.7185   1.7185   1.7923   1.7923
     2.0057   2.0057   2.3741   2.3741   2.8290   2.8290   2.8644   2.8644
     3.2826   3.2826   3.3692   3.3692   3.9705   3.9705   4.6332   4.6332
     5.0344   5.0344

          k = 0.1875 0.1875 0.0000 ( 58407 PWs)   bands (ev):

    -6.9750  -6.8392  -6.6064  -6.2946  -5.9018  -5.4194  -4.8593  -4.2263
    -3.5183  -2.7295  -1.8701  -1.4026  -1.4026  -1.2723  -1.2723  -1.0483
    -1.0483  -0.9422  -0.7493  -0.7493  -0.3738  -0.3737   0.0513   0.0854
     0.0854   0.6354   0.6354   1.1782   1.2674   1.2674   1.6360   1.9351
     1.9352   2.6909   2.6909   3.3532   3.5146   3.5146   4.0176   4.0683
     4.2916   4.3960   4.3960   4.5856   4.6741   4.9668   5.1968   5.1968
     5.2375   5.2376

          k = 0.1875 0.2500 0.0000 ( 58409 PWs)   bands (ev):

    -6.7258  -6.5902  -6.3577  -6.0464  -5.6542  -5.1726  -4.6134  -3.9815
    -3.2745  -2.4871  -2.2513  -2.1199  -1.8941  -1.6293  -1.5925  -1.2135
    -1.1636  -1.0333  -0.8133  -0.7450  -0.7032  -0.5142  -0.2100  -0.1408
     0.2876   0.3369   0.4081   0.9004   1.1180   1.4103   1.4923   1.8666
     1.8687   2.1733   2.6903   2.9391   3.0762   3.2589   3.4887   3.5697
     3.7686   3.7809   3.7858   4.1589   4.4902   4.6074   4.6986   4.8493
     5.1408   5.3429

          k = 0.1875 0.3125 0.0000 ( 58436 PWs)   bands (ev):

    -6.4060  -6.2707  -6.0386  -5.7279  -5.3366  -4.8559  -4.2979  -3.6672
    -3.0417  -2.9618  -2.9095  -2.6824  -2.3787  -2.1762  -1.9965  -1.5273
    -1.3204  -0.9844  -0.8571  -0.7271  -0.5096  -0.3970  -0.3700  -0.2117
     0.1787   0.3117   0.5894   0.6757   1.1119   1.1897   1.6955   1.7852
     1.9488   2.1598   2.3900   2.4648   2.5170   2.7353   2.8478   3.0304
     3.2229   3.4013   3.8091   3.8587   4.0114   4.0481   4.3932   4.8924
     4.9219   4.9695

          k = 0.1875 0.3750 0.0000 ( 58449 PWs)   bands (ev):

    -6.0160  -5.8811  -5.6496  -5.3397  -4.9493  -4.4698  -3.9132  -3.7696
    -3.6366  -3.4083  -3.2842  -3.1030  -2.7186  -2.5807  -2.2465  -1.7972
    -1.6988  -1.0814  -0.9442  -0.4835  -0.4049  -0.3455  -0.1370  -0.0249
     0.1733   0.3486   0.6073   0.9499   1.0240   1.2450   1.5553   1.6316
     1.8272   2.0379   2.1366   2.1449   2.1609   2.3336   2.5259   2.7068
     2.8414   3.1072   3.1663   3.6036   3.6952   4.1682   4.2971   4.3650
     4.4877   4.6250

          k = 0.1875 0.4375 0.0000 ( 58448 PWs)   bands (ev):

    -5.5566  -5.4220  -5.1912  -4.8822  -4.4929  -4.4323  -4.2987  -4.0695
    -4.0149  -3.7628  -3.4600  -3.3765  -2.9020  -2.8329  -2.3515  -2.1317
    -1.7298  -1.3511  -1.0356  -0.5021  -0.2689  -0.0428   0.0807   0.3122
     0.4075   0.4976   0.7198   1.0026   1.0292   1.1148   1.4129   1.4583
     1.4661   1.5148   1.7011   1.9940   2.0708   2.4655   2.5270   2.5360
     2.6165   2.9537   3.0706   3.2532   3.6194   3.6743   3.9227   4.1275
     4.3388   4.7935

          k = 0.1875-0.5000 0.0000 ( 58426 PWs)   bands (ev):

    -5.0284  -5.0284  -4.8943  -4.8943  -4.6642  -4.6642  -4.3562  -4.3562
    -3.9684  -3.9684  -3.4920  -3.4920  -2.9390  -2.9390  -2.3144  -2.3144
    -1.6161  -1.6161  -0.8395  -0.8395   0.0003   0.0003   0.4589   0.4589
     0.5921   0.5921   0.7478   0.7478   1.0134   1.0134   1.1354   1.1354
     1.5032   1.5032   1.9092   1.9092   1.9748   1.9748   2.4899   2.4899
     3.0343   3.0343   3.0880   3.0880   3.4604   3.4604   3.7877   3.7877
     4.5421   4.5421

          k = 0.2500 0.2500 0.0000 ( 58475 PWs)   bands (ev):

    -6.4770  -6.3416  -6.1095  -5.7986  -5.4071  -4.9262  -4.3679  -3.7370
    -3.0313  -2.2452  -2.0105  -2.0105  -1.8794  -1.8794  -1.6543  -1.6542
    -1.3890  -1.3536  -1.3535  -0.9759  -0.9758  -0.5139  -0.5139  -0.4652
     0.0398   0.0399   0.5218   0.6725   0.6725   1.3450   1.3450   1.6281
     2.0937   2.1060   2.1061   2.3299   2.4573   2.6758   2.9370   2.9371
     2.9712   3.3425   3.8002   3.8341   3.8342   3.9482   4.3351   4.7910
     4.7910   4.9109

          k = 0.2500 0.3125 0.0000 ( 58472 PWs)   bands (ev):

    -6.1577  -6.0226  -5.7909  -5.4807  -5.0900  -4.6100  -4.0529  -3.4233
    -2.7994  -2.7192  -2.6673  -2.4407  -2.1377  -1.9349  -1.7569  -1.7015
    -1.5705  -1.3497  -1.2859  -1.0811  -1.0487  -0.7484  -0.6731  -0.1930
    -0.1608  -0.1264   0.3697   0.5830   0.8151   0.9663   1.3378   1.5053
     1.6515   1.7031   1.9141   2.0046   2.1642   2.2102   2.3937   2.4219
     2.5841   3.0443   3.0502   3.2695   3.5739   3.9840   4.1767   4.1980
     4.2390   4.8555

          k = 0.2500 0.3750 0.0000 ( 58475 PWs)   bands (ev):

    -5.7684  -5.6337  -5.4025  -5.0931  -4.7033  -4.2246  -3.6689  -3.5258
    -3.3931  -3.1652  -3.0410  -2.8605  -2.4768  -2.3388  -2.0059  -1.5570
    -1.4609  -1.3249  -1.1943  -0.9761  -0.8433  -0.7067  -0.6763  -0.2843
    -0.1571   0.2046   0.2104   0.6412   0.7300   0.8376   0.9216   1.2223
     1.2671   1.3262   1.4845   1.5112   1.8815   2.0097   2.3365   2.3386
     2.3878   2.7558   2.7713   2.8839   3.3565   3.4888   3.6001   4.1542
     4.4647   4.4754

          k = 0.2500 0.4375 0.0000 ( 58487 PWs)   bands (ev):

    -5.3098  -5.1754  -4.9449  -4.6364  -4.2478  -4.1874  -4.0540  -3.8252
    -3.7705  -3.5189  -3.2165  -3.1334  -2.6598  -2.5907  -2.1105  -1.8910
    -1.4911  -1.1128  -0.8815  -0.8106  -0.7441  -0.5335  -0.2709  -0.2221
    -0.0517   0.1993   0.2076   0.3330   0.4868   0.6305   0.7463   0.8416
     0.8773   1.1640   1.2463   1.6431   1.7180   1.7454   1.7721   2.2351
     2.4553   2.7124   2.7702   2.8342   3.1980   3.2203   3.5373   3.7804
     4.1107   4.2329

          k = 0.2500-0.5000 0.0000 ( 58432 PWs)   bands (ev):

    -4.7824  -4.7824  -4.6485  -4.6485  -4.4188  -4.4188  -4.1113  -4.1113
    -3.7241  -3.7241  -3.2486  -3.2486  -2.6966  -2.6966  -2.0734  -2.0734
    -1.3773  -1.3773  -0.6081  -0.6081  -0.3713  -0.3713  -0.2473  -0.2473
    -0.0151  -0.0151   0.1674   0.1674   0.3856   0.3856   0.6767   0.6767
     1.1341   1.1341   1.1791   1.1791   1.6717   1.6717   2.1337   2.1337
     2.2960   2.2960   2.9328   2.9328   3.2945   3.2945   3.5966   3.5966
     3.8097   3.8097

          k = 0.3125 0.3125 0.0000 ( 58493 PWs)   bands (ev):

    -5.8391  -5.7043  -5.4730  -5.1635  -4.7735  -4.2946  -3.7386  -3.1104
    -2.4884  -2.4884  -2.4079  -2.3568  -2.3568  -2.1308  -2.1308  -1.8289
    -1.8288  -1.6257  -1.4495  -1.4495  -0.9853  -0.9852  -0.7749  -0.4293
    -0.4292   0.1369   0.2022   0.2022   0.7731   0.8567   0.8786   0.8787
     1.1579   1.2003   1.4471   1.6432   1.6433   1.8176   2.2697   2.2750
     2.4781   2.4781   2.6897   2.8207   3.3798   3.3799   3.4260   4.0917
     4.3433   4.3434

          k = 0.3125 0.3750 0.0000 ( 58529 PWs)   bands (ev):

    -5.4507  -5.3162  -5.0855  -4.7767  -4.3877  -3.9100  -3.3555  -3.2131
    -3.0807  -2.8533  -2.7290  -2.5494  -2.1673  -2.1093  -2.0287  -1.9778
    -1.7564  -1.6946  -1.4541  -1.2496  -1.1549  -1.0768  -0.5954  -0.5304
    -0.4067  -0.0345   0.0681   0.1775   0.2019   0.3555   0.5662   0.6115
     0.7465   0.9355   1.1160   1.2543   1.5091   1.5882   1.7648   2.0277
     2.1059   2.6372   2.6542   2.7055   2.8786   3.0665   3.4101   3.5919
     3.8108   4.1670

          k = 0.3125 0.4375 0.0000 ( 58504 PWs)   bands (ev):

    -4.9930  -4.8589  -4.6289  -4.3210  -3.9332  -3.8731  -3.7401  -3.5117
    -3.4570  -3.2061  -2.9043  -2.8215  -2.3494  -2.2801  -1.8029  -1.6628
    -1.5829  -1.5318  -1.3129  -1.1832  -1.0119  -0.8122  -0.6191  -0.5707
    -0.4937  -0.4463  -0.2138  -0.1268  -0.0316   0.1826   0.3023   0.3970
     0.4785   0.9369   0.9766   0.9937   1.1502   1.4756   1.6799   1.9333
     2.0558   2.1010   2.4438   2.7379   3.0276   3.0972   3.2749   3.3997
     3.6166   4.1514

          k = 0.3125-0.5000 0.0000 ( 58504 PWs)   bands (ev):

    -4.4668  -4.4668  -4.3332  -4.3332  -4.1039  -4.1039  -3.7971  -3.7971
    -3.4108  -3.4108  -2.9363  -2.9363  -2.3859  -2.3859  -1.7651  -1.7651
    -1.1498  -1.1498  -1.0822  -1.0822  -1.0126  -1.0126  -0.8007  -0.8007
    -0.4888  -0.4888  -0.3196  -0.3196  -0.0627  -0.0627   0.3645   0.3645
     0.5711   0.5711   0.8995   0.8995   1.4773   1.4773   1.5092   1.5092
     2.1941   2.1941   2.4467   2.4467   2.9608   2.9608   3.5172   3.5172
     3.8540   3.8540

          k = 0.3750 0.3750 0.0000 ( 58542 PWs)   bands (ev):

    -5.0633  -4.9291  -4.6990  -4.3910  -4.0030  -3.5265  -2.9736  -2.8319
    -2.8319  -2.6999  -2.6999  -2.4733  -2.4733  -2.3490  -2.1705  -2.1705
    -1.7900  -1.7900  -1.6515  -1.3241  -1.3241  -0.8803  -0.7668  -0.7667
    -0.6374  -0.5129  -0.2803  -0.1368  -0.1367  -0.0980   0.1146   0.4120
     0.5427   0.5428   0.8708   0.9090   1.3097   1.3097   1.4099   1.8663
     2.0356   2.1470   2.1470   2.6725   3.0311   3.0514   3.0515   3.3339
     3.5519   4.0178

          k = 0.3750 0.4375 0.0000 ( 58542 PWs)   bands (ev):

    -4.6068  -4.4731  -4.2436  -3.9365  -3.5498  -3.4900  -3.3573  -3.1295
    -3.0749  -2.8250  -2.5239  -2.4421  -2.3828  -2.2510  -2.0291  -1.9683
    -1.9024  -1.7260  -1.4271  -1.3476  -1.2847  -1.2184  -1.1476  -0.9350
    -0.8654  -0.8010  -0.6229  -0.4538  -0.3060  -0.1988  -0.0944   0.2307
     0.2973   0.4354   0.6657   0.7664   0.9875   1.3428   1.3768   1.4969
     1.7627   2.0626   2.3134   2.3882   2.6156   2.8302   3.3282   3.3849
     3.5499   3.7245

          k = 0.3750-0.5000 0.0000 ( 58554 PWs)   bands (ev):

    -4.0821  -4.0821  -3.9488  -3.9488  -3.7201  -3.7201  -3.4141  -3.4141
    -3.0289  -3.0289  -2.5561  -2.5561  -2.0086  -2.0086  -1.8667  -1.8667
    -1.7354  -1.7354  -1.5160  -1.5160  -1.3877  -1.3877  -1.2144  -1.2144
    -0.8212  -0.8212  -0.6964  -0.6964  -0.3306  -0.3306   0.0980   0.0980
     0.1959   0.1959   0.7928   0.7928   0.9487   0.9487   1.4806   1.4806
     1.8556   1.8556   2.2458   2.2458   2.8291   2.8291   3.0783   3.0783
     3.9441   3.9441

          k = 0.4375 0.4375 0.0000 ( 58544 PWs)   bands (ev):

    -4.1518  -4.0185  -3.7897  -3.4836  -3.0982  -3.0387  -3.0387  -2.9065
    -2.9065  -2.6796  -2.6796  -2.6251  -2.3763  -2.3763  -2.0773  -1.9951
    -1.9950  -1.9348  -1.8035  -1.5839  -1.5282  -1.5281  -1.4560  -1.2820
    -0.9701  -0.9701  -0.8887  -0.7640  -0.3988  -0.3411  -0.3411   0.0297
     0.1287   0.3402   0.3402   0.7256   0.8814   1.1086   1.1086   1.4139
     1.7887   1.9473   1.9473   2.1796   2.7627   2.8532   2.8533   3.0125
     3.8211   3.8212

          k = 0.4375-0.5000 0.0000 ( 58586 PWs)   bands (ev):

    -3.6288  -3.6288  -3.4960  -3.4960  -3.2680  -3.2680  -2.9631  -2.9631
    -2.5798  -2.5798  -2.5199  -2.5199  -2.3880  -2.3880  -2.1658  -2.1658
    -2.1055  -2.1055  -1.8624  -1.8624  -1.5635  -1.5635  -1.4834  -1.4834
    -1.0009  -1.0009  -0.9367  -0.9367  -0.4423  -0.4423  -0.2309  -0.2309
     0.1624   0.1624   0.5304   0.5304   0.8535   0.8535   1.3625   1.3625
     1.6297   1.6297   2.2548   2.2548   2.4835   2.4835   3.1958   3.1958
     3.4188   3.4188

          k =-0.5000-0.5000 0.0000 ( 58632 PWs)   bands (ev):

    -3.1078  -3.1078  -3.1078  -3.1078  -2.9755  -2.9755  -2.9755  -2.9755
    -2.7485  -2.7485  -2.7484  -2.7484  -2.4450  -2.4450  -2.4450  -2.4450
    -2.0636  -2.0636  -2.0635  -2.0635  -1.5963  -1.5963  -1.5963  -1.5963
    -1.0381  -1.0381  -1.0380  -1.0380  -0.4094  -0.4094  -0.4094  -0.4094
     0.2725   0.2725   0.2726   0.2726   1.0414   1.0414   1.0414   1.0414
     1.8806   1.8806   1.8806   1.8806   2.7870   2.7870   2.7871   2.7871
     3.7554   3.7554

     the Fermi energy is     3.5896 ev

!    total energy              =    -348.92718374 Ry
     Harris-Foulkes estimate   =    -348.92518375 Ry
     estimated scf accuracy    <          7.5E-09 Ry

     The total energy is the sum of the following terms:

     one-electron contribution =   -2740.48266042 Ry
     hartree contribution      =    1398.55919120 Ry
     xc contribution           =    -280.55028171 Ry
     ewald contribution        =    1273.54776029 Ry
     smearing contrib. (-TS)   =       0.00080691 Ry

     convergence has been achieved in  15 iterations

     Forces acting on atoms (Ry/au):


     negative rho (up, down):  7.061E-06 0.000E+00
     atom    1 type  1   force =     0.00000000    0.00000000   -0.00065612
     atom    2 type  1   force =     0.00000000    0.00000000   -0.00065615
     atom    3 type  1   force =     0.00000000    0.00000000   -0.00070817
     atom    4 type  1   force =     0.00000000    0.00000000   -0.00070817
     atom    5 type  1   force =     0.00000000    0.00000000    0.00079209
     atom    6 type  1   force =     0.00000000    0.00000000    0.00079217
     atom    7 type  1   force =     0.00000000    0.00000000    0.00025560
     atom    8 type  1   force =     0.00000000    0.00000000    0.00025560
     atom    9 type  1   force =     0.00000000    0.00000000    0.00021922
     atom   10 type  1   force =     0.00000000    0.00000000    0.00021866
     atom   11 type  1   force =     0.00000000    0.00000000   -0.00007859
     atom   12 type  1   force =     0.00000000    0.00000000   -0.00007859
     atom   13 type  1   force =     0.00000000    0.00000000   -0.00007664
     atom   14 type  1   force =     0.00000000    0.00000000   -0.00007702
     atom   15 type  1   force =     0.00000000    0.00000000    0.00007199
     atom   16 type  1   force =     0.00000000    0.00000000    0.00007199
     atom   17 type  1   force =     0.00000000    0.00000000    0.00008865
     atom   18 type  1   force =     0.00000000    0.00000000    0.00008900
     atom   19 type  1   force =     0.00000000    0.00000000   -0.00022714
     atom   20 type  1   force =     0.00000000    0.00000000   -0.00022714
     atom   21 type  1   force =     0.00000000    0.00000000   -0.00024854
     atom   22 type  1   force =     0.00000000    0.00000000   -0.00024798
     atom   23 type  1   force =     0.00000000    0.00000000   -0.00078889
     atom   24 type  1   force =     0.00000000    0.00000000   -0.00078889
     atom   25 type  1   force =     0.00000000    0.00000000    0.00069982
     atom   26 type  1   force =     0.00000000    0.00000000    0.00069974
     atom   27 type  1   force =     0.00000000    0.00000000    0.00065675
     atom   28 type  1   force =     0.00000000    0.00000000    0.00065675

     Total force =     0.002590     Total SCF correction =     0.000144


     entering subroutine stress ...


     negative rho (up, down):  7.061E-06 0.000E+00
          total   stress  (Ry/bohr**3)                   (kbar)     P=   -4.72
  -0.00005317   0.00000000   0.00000000         -7.82      0.00      0.00
   0.00000000  -0.00005317   0.00000000          0.00     -7.82      0.00
   0.00000000   0.00000000   0.00001017          0.00      0.00      1.50


     bfgs converged in   6 scf cycles and   5 bfgs steps
     (criteria: energy <  1.0E-04, force <  1.0E-03)

     End of BFGS Geometry Optimization

     Final energy   =    -348.9251837389 Ry
Begin final coordinates

ATOMIC_POSITIONS (crystal)
Al       0.000000000   0.000000000  -0.000377324
Al       0.500000000   0.500000000  -0.000377319
Al       0.500000000   0.000000000   0.045631405
Al       0.000000000   0.500000000   0.045631405
Al       0.000000000   0.000000000   0.091027586
Al       0.500000000   0.500000000   0.091027579
Al       0.500000000   0.000000000   0.136467646
Al       0.000000000   0.500000000   0.136467646
Al       0.000000000   0.000000000   0.181791416
Al       0.500000000   0.500000000   0.181791490
Al       0.500000000   0.000000000   0.227233958
Al       0.000000000   0.500000000   0.227233958
Al       0.000000000   0.000000000   0.272718116
Al       0.500000000   0.500000000   0.272718168
Al       0.500000000   0.000000000   0.318192182
Al       0.000000000   0.500000000   0.318192182
Al       0.000000000   0.000000000   0.363671970
Al       0.500000000   0.500000000   0.363671922
Al       0.500000000   0.000000000   0.409120537
Al       0.000000000   0.500000000   0.409120537
Al       0.000000000   0.000000000   0.454440769
Al       0.500000000   0.500000000   0.454440693
Al       0.500000000   0.000000000   0.499879850
Al       0.000000000   0.500000000   0.499879850
Al       0.000000000   0.000000000   0.545280611
Al       0.500000000   0.500000000   0.545280618
Al       0.500000000   0.000000000   0.591284909
Al       0.000000000   0.500000000   0.591284909
End final coordinates



     Writing output data file Al_100_7_4.save

 %%%%%%%%%%%%%%%%%%%%%%%%%%%%%%%%%%%%%%%%%%%%%%%%%%%%%%%%%%%%%%%%%%%%%%%%%%%%%%
     Error in routine davcio (10):
     error while writing from file "./tmp/Al_100_7_4.wfc1"
 %%%%%%%%%%%%%%%%%%%%%%%%%%%%%%%%%%%%%%%%%%%%%%%%%%%%%%%%%%%%%%%%%%%%%%%%%%%%%%

     stopping ...
--------------------------------------------------------------------------
MPI_ABORT was invoked on rank 0 in communicator MPI_COMM_WORLD 
with errorcode 1.

NOTE: invoking MPI_ABORT causes Open MPI to kill all MPI processes.
You may or may not see output from other processes, depending on
exactly when Open MPI kills them.
--------------------------------------------------------------------------
