
     Program PWSCF v.6.4.1 starts on  5Jun2020 at 17:26: 5 

     This program is part of the open-source Quantum ESPRESSO suite
     for quantum simulation of materials; please cite
         "P. Giannozzi et al., J. Phys.:Condens. Matter 21 395502 (2009);
         "P. Giannozzi et al., J. Phys.:Condens. Matter 29 465901 (2017);
          URL http://www.quantum-espresso.org", 
     in publications or presentations arising from this work. More details at
     http://www.quantum-espresso.org/quote

     Parallel version (MPI & OpenMP), running on       1 processor cores
     Number of MPI processes:                 1
     Threads/MPI process:                     1

     MPI processes distributed on     1 nodes
     Reading input from Al_111_H2_br_site_1.pw.in

     Current dimensions of program PWSCF are:
     Max number of different atomic species (ntypx) = 10
     Max number of k-points (npk) =  40000
     Max angular momentum in pseudopotentials (lmaxx) =  3
               file H.pbe-rrkjus.UPF: wavefunction(s)  1S renormalized

     Subspace diagonalization in iterative solution of the eigenvalue problem:
     a serial algorithm will be used

 
     G-vector sticks info
     --------------------
     sticks:   dense  smooth     PW     G-vecs:    dense   smooth      PW
     Sum        1189     955    271               490481   351617   53557
 


     bravais-lattice index     =            4
     lattice parameter (alat)  =      10.7520  a.u.
     unit-cell volume          =   15820.6847 (a.u.)^3
     number of atoms/cell      =           37
     number of atomic types    =            2
     number of electrons       =       109.00
     number of Kohn-Sham states=           66
     kinetic-energy cutoff     =      30.0000  Ry
     charge density cutoff     =     150.0000  Ry
     convergence threshold     =      3.6E-05
     mixing beta               =       0.3000
     number of iterations used =            8  local-TF  mixing
     Exchange-correlation      =  SLA  PW   PBE  PBE ( 1  4  3  4 0 0)
     nstep                     =           50


     celldm(1)=  10.752000  celldm(2)=   0.000000  celldm(3)=  14.696938
     celldm(4)=   0.000000  celldm(5)=   0.000000  celldm(6)=   0.000000

     crystal axes: (cart. coord. in units of alat)
               a(1) = (   1.000000   0.000000   0.000000 )  
               a(2) = (  -0.500000   0.866025   0.000000 )  
               a(3) = (   0.000000   0.000000  14.696938 )  

     reciprocal axes: (cart. coord. in units 2 pi/alat)
               b(1) = (  1.000000  0.577350  0.000000 )  
               b(2) = (  0.000000  1.154701  0.000000 )  
               b(3) = (  0.000000  0.000000  0.068041 )  


     PseudoPot. # 1 for Al read from file:
     ./Al.pbe-n-van.UPF
     MD5 check sum: b11ded24487aef5bc42d5c7a2e22a7b6
     Pseudo is Ultrasoft + core correction, Zval =  3.0
     Generated by new atomic code, or converted to UPF format
     Using radial grid of  893 points,  2 beta functions with: 
                l(1) =   0
                l(2) =   1
     Q(r) pseudized with  8 coefficients,  rinner =    0.900   0.900   0.900


     PseudoPot. # 2 for H  read from file:
     ./H.pbe-rrkjus.UPF
     MD5 check sum: 0433647300470310da31d564c103eed6
     Pseudo is Ultrasoft, Zval =  1.0
     Generated by new atomic code, or converted to UPF format
     Using radial grid of 1061 points,  2 beta functions with: 
                l(1) =   0
                l(2) =   0
     Q(r) pseudized with 0 coefficients 


     atomic species   valence    mass     pseudopotential
        Al             3.00    26.98000     Al( 1.00)
        H              1.00     1.00790     H ( 1.00)

      2 Sym. Ops. (no inversion) found ( 1 have fractional translation)



   Cartesian axes

     site n.     atom                  positions (alat units)
         1           Al  tau(   1) = (   0.2500002   0.1443374   0.8164957  )
         2           Al  tau(   2) = (   0.0000002   0.5773501   0.8164957  )
         3           Al  tau(   3) = (   0.7500002   0.1443374   0.8164957  )
         4           Al  tau(   4) = (   0.5000002   0.5773501   0.8164957  )
         5           Al  tau(   5) = (   0.0000000   0.0000000   0.0000000  )
         6           Al  tau(   6) = (  -0.2500000   0.4330127   0.0000000  )
         7           Al  tau(   7) = (   0.5000000   0.0000000   0.0000000  )
         8           Al  tau(   8) = (   0.2500000   0.4330127   0.0000000  )
         9           Al  tau(   9) = (  -0.0000003   0.2886753   1.6329939  )
        10           Al  tau(  10) = (  -0.2500003   0.7216880   1.6329939  )
        11           Al  tau(  11) = (   0.4999998   0.2886753   1.6329939  )
        12           Al  tau(  12) = (   0.2499998   0.7216880   1.6329939  )
        13           Al  tau(  13) = (   0.2500002   0.1443374   3.2659855  )
        14           Al  tau(  14) = (   0.0000002   0.5773501   3.2659855  )
        15           Al  tau(  15) = (   0.7500002   0.1443374   3.2659855  )
        16           Al  tau(  16) = (   0.5000002   0.5773501   3.2659855  )
        17           Al  tau(  17) = (   0.0000000   0.0000000   2.4494897  )
        18           Al  tau(  18) = (  -0.2500000   0.4330127   2.4494897  )
        19           Al  tau(  19) = (   0.5000000   0.0000000   2.4494897  )
        20           Al  tau(  20) = (   0.2500000   0.4330127   2.4494897  )
        21           Al  tau(  21) = (  -0.0000003   0.2886753   4.0824837  )
        22           Al  tau(  22) = (  -0.2500003   0.7216880   4.0824837  )
        23           Al  tau(  23) = (   0.4999998   0.2886753   4.0824837  )
        24           Al  tau(  24) = (   0.2499998   0.7216880   4.0824837  )
        25           Al  tau(  25) = (   0.2500002   0.1443374   5.7154752  )
        26           Al  tau(  26) = (   0.0000002   0.5773501   5.7154752  )
        27           Al  tau(  27) = (   0.7500002   0.1443374   5.7154752  )
        28           Al  tau(  28) = (   0.5000002   0.5773501   5.7154752  )
        29           Al  tau(  29) = (   0.0000000   0.0000000   4.8989795  )
        30           Al  tau(  30) = (  -0.2500000   0.4330127   4.8989795  )
        31           Al  tau(  31) = (   0.5000000   0.0000000   4.8989795  )
        32           Al  tau(  32) = (   0.2500000   0.4330127   4.8989795  )
        33           Al  tau(  33) = (  -0.0000003   0.2886753   6.5319734  )
        34           Al  tau(  34) = (  -0.2500003   0.7216880   6.5319734  )
        35           Al  tau(  35) = (   0.4999998   0.2886753   6.5319734  )
        36           Al  tau(  36) = (   0.2499998   0.7216880   6.5319734  )
        37           H   tau(  37) = (   0.2499984   0.2886751   6.5319734  )

     number of k points=   111  Marzari-Vanderbilt smearing, width (Ry)=  0.0250

     Number of k-points >= 100: set verbosity='high' to print them.

     Dense  grid:   490481 G-vectors     FFT dimensions: (  48,  45, 625)

     Smooth grid:   351617 G-vectors     FFT dimensions: (  40,  40, 576)

     Estimated max dynamical RAM per process >       6.16 GB

     Initial potential from superposition of free atoms

     starting charge  108.81504, renormalised to  109.00000

     negative rho (up, down):  3.368E-04 0.000E+00
     Starting wfcs are  145 randomized atomic wfcs

     total cpu time spent up to now is      526.9 secs

     Self-consistent Calculation

     iteration #  1     ecut=    30.00 Ry     beta= 0.30
     Davidson diagonalization with overlap
     ethr =  1.00E-02,  avg # of iterations =  4.0

     negative rho (up, down):  6.024E-03 0.000E+00

     total cpu time spent up to now is     1462.7 secs

     total energy              =    -449.98778203 Ry
     Harris-Foulkes estimate   =    -453.45868339 Ry
     estimated scf accuracy    <    1399.83278374 Ry

     iteration #  2     ecut=    30.00 Ry     beta= 0.30
     Davidson diagonalization with overlap
     ethr =  1.00E-02,  avg # of iterations =  1.1

     negative rho (up, down):  1.438E-01 0.000E+00

     total cpu time spent up to now is     2055.1 secs

     total energy              =    -444.20996358 Ry
     Harris-Foulkes estimate   =    -450.46720195 Ry
     estimated scf accuracy    <     742.26745775 Ry

     iteration #  3     ecut=    30.00 Ry     beta= 0.30
     Davidson diagonalization with overlap
     ethr =  1.00E-02,  avg # of iterations =  5.7

     negative rho (up, down):  1.863E-01 0.000E+00

     total cpu time spent up to now is     2826.4 secs

     total energy              =    -447.89119178 Ry
     Harris-Foulkes estimate   =    -447.54193801 Ry
     estimated scf accuracy    <      30.95614358 Ry

     iteration #  4     ecut=    30.00 Ry     beta= 0.30
     Davidson diagonalization with overlap
     ethr =  1.00E-02,  avg # of iterations =  1.2

     negative rho (up, down):  1.434E-01 0.000E+00

     total cpu time spent up to now is     3419.1 secs

     total energy              =    -446.25119704 Ry
     Harris-Foulkes estimate   =    -447.96467549 Ry
     estimated scf accuracy    <      60.71864812 Ry

     iteration #  5     ecut=    30.00 Ry     beta= 0.30
     Davidson diagonalization with overlap
     ethr =  1.00E-02,  avg # of iterations =  6.8

     negative rho (up, down):  9.793E-02 0.000E+00

     total cpu time spent up to now is     4256.5 secs

     total energy              =    -447.53851373 Ry
     Harris-Foulkes estimate   =    -448.74180069 Ry
     estimated scf accuracy    <     114.79776757 Ry

     iteration #  6     ecut=    30.00 Ry     beta= 0.30
     Davidson diagonalization with overlap
     ethr =  1.00E-02,  avg # of iterations =  1.4

     negative rho (up, down):  9.564E-02 0.000E+00

     total cpu time spent up to now is     4853.2 secs

     total energy              =    -447.77934009 Ry
     Harris-Foulkes estimate   =    -447.84364032 Ry
     estimated scf accuracy    <      18.84581616 Ry

     iteration #  7     ecut=    30.00 Ry     beta= 0.30
     Davidson diagonalization with overlap
     ethr =  1.00E-02,  avg # of iterations =  1.1

     negative rho (up, down):  9.081E-02 0.000E+00

     total cpu time spent up to now is     5446.7 secs

     total energy              =    -447.71837930 Ry
     Harris-Foulkes estimate   =    -447.79919046 Ry
     estimated scf accuracy    <       9.96898608 Ry

     iteration #  8     ecut=    30.00 Ry     beta= 0.30
     Davidson diagonalization with overlap
     ethr =  9.15E-03,  avg # of iterations =  1.0

     negative rho (up, down):  8.087E-02 0.000E+00

     total cpu time spent up to now is     6039.2 secs

     total energy              =    -447.69180336 Ry
     Harris-Foulkes estimate   =    -447.75037672 Ry
     estimated scf accuracy    <       0.46753445 Ry

     iteration #  9     ecut=    30.00 Ry     beta= 0.30
     Davidson diagonalization with overlap
     c_bands:  3 eigenvalues not converged
     c_bands:  1 eigenvalues not converged
     ethr =  4.29E-04,  avg # of iterations = 10.5

     negative rho (up, down):  8.177E-02 0.000E+00

     total cpu time spent up to now is     6951.3 secs

     total energy              =    -447.82818634 Ry
     Harris-Foulkes estimate   =    -448.07893890 Ry
     estimated scf accuracy    <      97.12478037 Ry

     iteration # 10     ecut=    30.00 Ry     beta= 0.30
     Davidson diagonalization with overlap
     ethr =  4.29E-04,  avg # of iterations =  2.1

     negative rho (up, down):  7.885E-02 0.000E+00

     total cpu time spent up to now is     7570.6 secs

     total energy              =    -448.01523413 Ry
     Harris-Foulkes estimate   =    -447.87382705 Ry
     estimated scf accuracy    <      39.96220017 Ry

     iteration # 11     ecut=    30.00 Ry     beta= 0.30
     Davidson diagonalization with overlap
     ethr =  4.29E-04,  avg # of iterations =  1.3

     negative rho (up, down):  9.508E-02 0.000E+00

     total cpu time spent up to now is     8166.3 secs

     total energy              =    -446.97391939 Ry
     Harris-Foulkes estimate   =    -448.05124117 Ry
     estimated scf accuracy    <      90.78378530 Ry

     iteration # 12     ecut=    30.00 Ry     beta= 0.30
     Davidson diagonalization with overlap
     c_bands:  1 eigenvalues not converged
     c_bands:  4 eigenvalues not converged
     c_bands:  2 eigenvalues not converged
     c_bands:  4 eigenvalues not converged
     c_bands:  2 eigenvalues not converged
     c_bands:  5 eigenvalues not converged
     ethr =  4.29E-04,  avg # of iterations = 11.4

     negative rho (up, down):  8.683E-02 0.000E+00

     total cpu time spent up to now is     9290.9 secs

     total energy              =    -447.57115342 Ry
     Harris-Foulkes estimate   =    -448.09195069 Ry
     estimated scf accuracy    <      94.60378500 Ry

     iteration # 13     ecut=    30.00 Ry     beta= 0.30
     Davidson diagonalization with overlap
     ethr =  4.29E-04,  avg # of iterations =  4.9

     negative rho (up, down):  9.422E-02 0.000E+00

     total cpu time spent up to now is     9956.7 secs

     total energy              =    -447.85751645 Ry
     Harris-Foulkes estimate   =    -447.77787764 Ry
     estimated scf accuracy    <       3.34389629 Ry

     iteration # 14     ecut=    30.00 Ry     beta= 0.30
     Davidson diagonalization with overlap
     ethr =  4.29E-04,  avg # of iterations =  2.3

     negative rho (up, down):  7.735E-02 0.000E+00

     total cpu time spent up to now is    10580.8 secs

     total energy              =    -447.57982664 Ry
     Harris-Foulkes estimate   =    -447.95737107 Ry
     estimated scf accuracy    <      52.12953469 Ry

     iteration # 15     ecut=    30.00 Ry     beta= 0.30
     Davidson diagonalization with overlap
     ethr =  4.29E-04,  avg # of iterations =  2.8

     negative rho (up, down):  7.673E-02 0.000E+00

     total cpu time spent up to now is    11208.1 secs

     total energy              =    -447.76142804 Ry
     Harris-Foulkes estimate   =    -447.76046721 Ry
     estimated scf accuracy    <       0.15899280 Ry

     iteration # 16     ecut=    30.00 Ry     beta= 0.30
     Davidson diagonalization with overlap
     c_bands:  3 eigenvalues not converged
     ethr =  1.46E-04,  avg # of iterations =  4.4

     negative rho (up, down):  7.962E-02 0.000E+00

     total cpu time spent up to now is    11871.3 secs

     total energy              =    -447.76272790 Ry
     Harris-Foulkes estimate   =    -447.76603016 Ry
     estimated scf accuracy    <       0.42985712 Ry

     iteration # 17     ecut=    30.00 Ry     beta= 0.30
     Davidson diagonalization with overlap
     ethr =  1.46E-04,  avg # of iterations =  1.1

     negative rho (up, down):  7.824E-02 0.000E+00

     total cpu time spent up to now is    12469.0 secs

     total energy              =    -447.76127513 Ry
     Harris-Foulkes estimate   =    -447.76387342 Ry
     estimated scf accuracy    <       0.20221084 Ry

     iteration # 18     ecut=    30.00 Ry     beta= 0.30
     Davidson diagonalization with overlap
     ethr =  1.46E-04,  avg # of iterations =  1.8

     negative rho (up, down):  7.380E-02 0.000E+00

     total cpu time spent up to now is    13071.0 secs

     total energy              =    -447.82617058 Ry
     Harris-Foulkes estimate   =    -447.78589346 Ry
     estimated scf accuracy    <       6.34947971 Ry

     iteration # 19     ecut=    30.00 Ry     beta= 0.30
     Davidson diagonalization with overlap
     c_bands:  3 eigenvalues not converged
     c_bands:  4 eigenvalues not converged
     ethr =  1.46E-04,  avg # of iterations =  3.2

     negative rho (up, down):  8.561E-02 0.000E+00

     total cpu time spent up to now is    13713.6 secs

     total energy              =    -447.69188421 Ry
     Harris-Foulkes estimate   =    -447.84441485 Ry
     estimated scf accuracy    <      21.29015192 Ry

     iteration # 20     ecut=    30.00 Ry     beta= 0.30
     Davidson diagonalization with overlap
     ethr =  1.46E-04,  avg # of iterations =  4.1

     negative rho (up, down):  8.431E-02 0.000E+00

     total cpu time spent up to now is    14375.7 secs

     total energy              =    -447.75998243 Ry
     Harris-Foulkes estimate   =    -447.76160216 Ry
     estimated scf accuracy    <       0.17329166 Ry

     iteration # 21     ecut=    30.00 Ry     beta= 0.30
     Davidson diagonalization with overlap
     ethr =  1.46E-04,  avg # of iterations =  2.1

     negative rho (up, down):  7.681E-02 0.000E+00

     total cpu time spent up to now is    14989.5 secs

     total energy              =    -447.76075391 Ry
     Harris-Foulkes estimate   =    -447.76605702 Ry
     estimated scf accuracy    <       0.40428967 Ry

     iteration # 22     ecut=    30.00 Ry     beta= 0.30
     Davidson diagonalization with overlap
     ethr =  1.46E-04,  avg # of iterations =  1.0

     negative rho (up, down):  7.184E-02 0.000E+00

     total cpu time spent up to now is    15583.6 secs

     total energy              =    -447.75828217 Ry
     Harris-Foulkes estimate   =    -447.76247978 Ry
     estimated scf accuracy    <       0.06275739 Ry

     iteration # 23     ecut=    30.00 Ry     beta= 0.30
     Davidson diagonalization with overlap
     c_bands:  2 eigenvalues not converged
     c_bands:  1 eigenvalues not converged
     c_bands:  3 eigenvalues not converged
     c_bands:  3 eigenvalues not converged
     ethr =  5.76E-05,  avg # of iterations =  3.6

     negative rho (up, down):  7.019E-02 0.000E+00

     total cpu time spent up to now is    16238.1 secs

     total energy              =    -447.76125692 Ry
     Harris-Foulkes estimate   =    -447.76207995 Ry
     estimated scf accuracy    <       0.05197555 Ry

     iteration # 24     ecut=    30.00 Ry     beta= 0.30
     Davidson diagonalization with overlap
     ethr =  4.77E-05,  avg # of iterations =  1.2

     negative rho (up, down):  6.495E-02 0.000E+00

     total cpu time spent up to now is    16831.3 secs

     total energy              =    -447.75971187 Ry
     Harris-Foulkes estimate   =    -447.76155767 Ry
     estimated scf accuracy    <       0.03567232 Ry

     iteration # 25     ecut=    30.00 Ry     beta= 0.30
     Davidson diagonalization with overlap
     c_bands:  3 eigenvalues not converged
     c_bands:  2 eigenvalues not converged
     c_bands:  2 eigenvalues not converged
     c_bands:  1 eigenvalues not converged
     c_bands:  3 eigenvalues not converged
     c_bands:  5 eigenvalues not converged
     ethr =  3.27E-05,  avg # of iterations =  3.7

     negative rho (up, down):  5.269E-02 0.000E+00

     total cpu time spent up to now is    17494.5 secs

     total energy              =    -447.75697849 Ry
     Harris-Foulkes estimate   =    -447.76114502 Ry
     estimated scf accuracy    <       0.11952715 Ry

     iteration # 26     ecut=    30.00 Ry     beta= 0.30
     Davidson diagonalization with overlap
     ethr =  3.27E-05,  avg # of iterations =  2.3

     negative rho (up, down):  5.094E-02 0.000E+00

     total cpu time spent up to now is    18117.1 secs

     total energy              =    -447.75835447 Ry
     Harris-Foulkes estimate   =    -447.75881937 Ry
     estimated scf accuracy    <       0.02573551 Ry

     iteration # 27     ecut=    30.00 Ry     beta= 0.30
     Davidson diagonalization with overlap
     c_bands:  1 eigenvalues not converged
     c_bands:  1 eigenvalues not converged
     ethr =  2.36E-05,  avg # of iterations =  1.9

     negative rho (up, down):  4.708E-02 0.000E+00

     total cpu time spent up to now is    18733.7 secs

     total energy              =    -447.75905611 Ry
     Harris-Foulkes estimate   =    -447.75921594 Ry
     estimated scf accuracy    <       0.01046505 Ry

     iteration # 28     ecut=    30.00 Ry     beta= 0.30
     Davidson diagonalization with overlap
     c_bands:  1 eigenvalues not converged
     c_bands:  1 eigenvalues not converged
     c_bands:  1 eigenvalues not converged
     c_bands:  1 eigenvalues not converged
     c_bands:  1 eigenvalues not converged
     ethr =  9.60E-06,  avg # of iterations =  5.4

     negative rho (up, down):  4.416E-02 0.000E+00

     total cpu time spent up to now is    19428.3 secs

     total energy              =    -447.75753819 Ry
     Harris-Foulkes estimate   =    -447.75985305 Ry
     estimated scf accuracy    <       0.22328939 Ry

     iteration # 29     ecut=    30.00 Ry     beta= 0.30
     Davidson diagonalization with overlap
     c_bands:  3 eigenvalues not converged
     ethr =  9.60E-06,  avg # of iterations =  3.6

     negative rho (up, down):  4.010E-02 0.000E+00

     total cpu time spent up to now is    20064.6 secs

     total energy              =    -447.75795950 Ry
     Harris-Foulkes estimate   =    -447.75833681 Ry
     estimated scf accuracy    <       0.00468024 Ry

     iteration # 30     ecut=    30.00 Ry     beta= 0.30
     Davidson diagonalization with overlap
     c_bands:  3 eigenvalues not converged
     c_bands:  3 eigenvalues not converged
     c_bands:  3 eigenvalues not converged
     c_bands:  2 eigenvalues not converged
     c_bands:  1 eigenvalues not converged
     c_bands:  1 eigenvalues not converged
     ethr =  4.29E-06,  avg # of iterations =  5.7

     negative rho (up, down):  4.139E-02 0.000E+00

     total cpu time spent up to now is    20766.4 secs

     total energy              =    -447.75760268 Ry
     Harris-Foulkes estimate   =    -447.75807987 Ry
     estimated scf accuracy    <       0.01105487 Ry

     iteration # 31     ecut=    30.00 Ry     beta= 0.30
     Davidson diagonalization with overlap
     ethr =  4.29E-06,  avg # of iterations =  2.4

     negative rho (up, down):  4.116E-02 0.000E+00

     total cpu time spent up to now is    21384.7 secs

     total energy              =    -447.75752512 Ry
     Harris-Foulkes estimate   =    -447.75775543 Ry
     estimated scf accuracy    <       0.04601752 Ry

     iteration # 32     ecut=    30.00 Ry     beta= 0.30
     Davidson diagonalization with overlap
     ethr =  4.29E-06,  avg # of iterations =  1.0

     negative rho (up, down):  3.394E-02 0.000E+00

     total cpu time spent up to now is    21977.1 secs

     total energy              =    -447.75697201 Ry
     Harris-Foulkes estimate   =    -447.75756547 Ry
     estimated scf accuracy    <       0.01899856 Ry

     iteration # 33     ecut=    30.00 Ry     beta= 0.30
     Davidson diagonalization with overlap
     c_bands:  1 eigenvalues not converged
     c_bands:  3 eigenvalues not converged
     c_bands:  1 eigenvalues not converged
     c_bands:  1 eigenvalues not converged
     ethr =  4.29E-06,  avg # of iterations =  3.9

     negative rho (up, down):  3.321E-02 0.000E+00

     total cpu time spent up to now is    22625.9 secs

     total energy              =    -447.75664148 Ry
     Harris-Foulkes estimate   =    -447.75742533 Ry
     estimated scf accuracy    <       0.06039723 Ry

     iteration # 34     ecut=    30.00 Ry     beta= 0.30
     Davidson diagonalization with overlap
     ethr =  4.29E-06,  avg # of iterations =  2.8

     negative rho (up, down):  3.162E-02 0.000E+00

     total cpu time spent up to now is    23252.8 secs

     total energy              =    -447.75669153 Ry
     Harris-Foulkes estimate   =    -447.75686962 Ry
     estimated scf accuracy    <       0.00106425 Ry

     iteration # 35     ecut=    30.00 Ry     beta= 0.30
     Davidson diagonalization with overlap
     c_bands:  1 eigenvalues not converged
     ethr =  9.76E-07,  avg # of iterations =  2.8

     negative rho (up, down):  2.145E-02 0.000E+00

     total cpu time spent up to now is    23878.6 secs

     total energy              =    -447.75633251 Ry
     Harris-Foulkes estimate   =    -447.75672942 Ry
     estimated scf accuracy    <       0.00125115 Ry

     iteration # 36     ecut=    30.00 Ry     beta= 0.30
     Davidson diagonalization with overlap
     ethr =  9.76E-07,  avg # of iterations =  1.8

     negative rho (up, down):  2.436E-02 0.000E+00

     total cpu time spent up to now is    24484.2 secs

     total energy              =    -447.75630301 Ry
     Harris-Foulkes estimate   =    -447.75636528 Ry
     estimated scf accuracy    <       0.00100866 Ry

     iteration # 37     ecut=    30.00 Ry     beta= 0.30
     Davidson diagonalization with overlap
     ethr =  9.25E-07,  avg # of iterations =  1.3

     negative rho (up, down):  1.916E-02 0.000E+00

     total cpu time spent up to now is    25078.2 secs

     total energy              =    -447.75619494 Ry
     Harris-Foulkes estimate   =    -447.75631345 Ry
     estimated scf accuracy    <       0.00034255 Ry

     iteration # 38     ecut=    30.00 Ry     beta= 0.30
     Davidson diagonalization with overlap
     ethr =  3.14E-07,  avg # of iterations =  2.2

     negative rho (up, down):  1.226E-02 0.000E+00

     total cpu time spent up to now is    25691.9 secs

     total energy              =    -447.75606931 Ry
     Harris-Foulkes estimate   =    -447.75620645 Ry
     estimated scf accuracy    <       0.00084418 Ry

     iteration # 39     ecut=    30.00 Ry     beta= 0.30
     Davidson diagonalization with overlap
     c_bands:  1 eigenvalues not converged
     ethr =  3.14E-07,  avg # of iterations =  2.6

     negative rho (up, down):  8.799E-03 0.000E+00

     total cpu time spent up to now is    26319.0 secs

     total energy              =    -447.75605114 Ry
     Harris-Foulkes estimate   =    -447.75608958 Ry
     estimated scf accuracy    <       0.00049643 Ry

     iteration # 40     ecut=    30.00 Ry     beta= 0.30
     Davidson diagonalization with overlap
     c_bands:  1 eigenvalues not converged
     c_bands:  2 eigenvalues not converged
     ethr =  3.14E-07,  avg # of iterations =  2.8

     negative rho (up, down):  8.521E-03 0.000E+00

     total cpu time spent up to now is    26953.0 secs

     total energy              =    -447.75606575 Ry
     Harris-Foulkes estimate   =    -447.75607461 Ry
     estimated scf accuracy    <       0.00049458 Ry

     iteration # 41     ecut=    30.00 Ry     beta= 0.30
     Davidson diagonalization with overlap
     c_bands:  2 eigenvalues not converged
     c_bands:  1 eigenvalues not converged
     ethr =  3.14E-07,  avg # of iterations =  1.3

     negative rho (up, down):  6.351E-03 0.000E+00

     total cpu time spent up to now is    27548.7 secs

     total energy              =    -447.75605695 Ry
     Harris-Foulkes estimate   =    -447.75606840 Ry
     estimated scf accuracy    <       0.00005021 Ry

     iteration # 42     ecut=    30.00 Ry     beta= 0.30
     Davidson diagonalization with overlap
     c_bands:  1 eigenvalues not converged
     ethr =  4.61E-08,  avg # of iterations =  3.9

     negative rho (up, down):  6.325E-03 0.000E+00

     total cpu time spent up to now is    28213.6 secs

     total energy              =    -447.75605815 Ry
     Harris-Foulkes estimate   =    -447.75606267 Ry
     estimated scf accuracy    <       0.00023021 Ry

     iteration # 43     ecut=    30.00 Ry     beta= 0.30
     Davidson diagonalization with overlap
     ethr =  4.61E-08,  avg # of iterations =  1.4

     negative rho (up, down):  3.100E-03 0.000E+00

     total cpu time spent up to now is    28810.3 secs

     total energy              =    -447.75604372 Ry
     Harris-Foulkes estimate   =    -447.75605906 Ry
     estimated scf accuracy    <       0.00006111 Ry

     iteration # 44     ecut=    30.00 Ry     beta= 0.30
     Davidson diagonalization with overlap
     ethr =  4.61E-08,  avg # of iterations =  4.4

     negative rho (up, down):  1.973E-03 0.000E+00

     total cpu time spent up to now is    29506.9 secs

     total energy              =    -447.75604145 Ry
     Harris-Foulkes estimate   =    -447.75605853 Ry
     estimated scf accuracy    <       0.00075077 Ry

     iteration # 45     ecut=    30.00 Ry     beta= 0.30
     Davidson diagonalization with overlap
     ethr =  4.61E-08,  avg # of iterations =  3.9

     negative rho (up, down):  1.546E-03 0.000E+00

     total cpu time spent up to now is    30172.9 secs

     total energy              =    -447.75604443 Ry
     Harris-Foulkes estimate   =    -447.75604717 Ry
     estimated scf accuracy    <       0.00007660 Ry

     iteration # 46     ecut=    30.00 Ry     beta= 0.30
     Davidson diagonalization with overlap
     ethr =  4.61E-08,  avg # of iterations =  1.0

     negative rho (up, down):  1.008E-04 0.000E+00

     total cpu time spent up to now is    30753.2 secs

     End of self-consistent calculation

     Number of k-points >= 100: set verbosity='high' to print the bands.

     the Fermi energy is    -0.9839 ev

!    total energy              =    -447.75602086 Ry
     Harris-Foulkes estimate   =    -447.75604477 Ry
     estimated scf accuracy    <       0.00001651 Ry

     The total energy is the sum of the following terms:

     one-electron contribution =   -9768.71063047 Ry
     hartree contribution      =    4902.15100426 Ry
     xc contribution           =    -356.05171302 Ry
     ewald contribution        =    4774.85338995 Ry
     smearing contrib. (-TS)   =       0.00192841 Ry

     convergence has been achieved in  46 iterations

     negative rho (up, down):  1.008E-04 0.000E+00

     Forces acting on atoms (cartesian axes, Ry/au):

     atom    1 type  1   force =     0.00000000    0.00003534    0.00022106
     atom    2 type  1   force =    -0.00003334   -0.00005431    0.00022100
     atom    3 type  1   force =     0.00000000    0.00007396    0.00022396
     atom    4 type  1   force =     0.00003334   -0.00005431    0.00022100
     atom    5 type  1   force =    -0.00001815   -0.00000496    0.00414416
     atom    6 type  1   force =     0.00000000   -0.00000564    0.00413777
     atom    7 type  1   force =     0.00001815   -0.00000496    0.00414416
     atom    8 type  1   force =     0.00000000    0.00001538    0.00414688
     atom    9 type  1   force =     0.00004950    0.00004038    0.00004152
     atom   10 type  1   force =     0.00000000   -0.00001160    0.00004572
     atom   11 type  1   force =    -0.00004950    0.00004038    0.00004152
     atom   12 type  1   force =     0.00000000   -0.00006870    0.00003823
     atom   13 type  1   force =     0.00000000    0.00000141    0.00000258
     atom   14 type  1   force =     0.00000380    0.00000067   -0.00000217
     atom   15 type  1   force =     0.00000000   -0.00000295   -0.00000576
     atom   16 type  1   force =    -0.00000380    0.00000067   -0.00000217
     atom   17 type  1   force =    -0.00005338   -0.00000952    0.00002584
     atom   18 type  1   force =     0.00000000   -0.00002098    0.00003144
     atom   19 type  1   force =     0.00005338   -0.00000952    0.00002584
     atom   20 type  1   force =     0.00000000    0.00004053    0.00001874
     atom   21 type  1   force =    -0.00000828    0.00001366   -0.00003278
     atom   22 type  1   force =     0.00000000   -0.00001850   -0.00001373
     atom   23 type  1   force =     0.00000828    0.00001366   -0.00003278
     atom   24 type  1   force =     0.00000000   -0.00000925   -0.00001362
     atom   25 type  1   force =     0.00000000   -0.00005886   -0.00005991
     atom   26 type  1   force =    -0.00002413   -0.00003430   -0.00021156
     atom   27 type  1   force =     0.00000000    0.00004310   -0.00027629
     atom   28 type  1   force =     0.00002413   -0.00003430   -0.00021156
     atom   29 type  1   force =     0.00009487    0.00010445   -0.00009479
     atom   30 type  1   force =     0.00000000   -0.00005018   -0.00011694
     atom   31 type  1   force =    -0.00009487    0.00010445   -0.00009479
     atom   32 type  1   force =     0.00000000   -0.00015886   -0.00005035
     atom   33 type  1   force =    -0.15236707   -0.00001992   -0.00389463
     atom   34 type  1   force =     0.00000000   -0.02313030   -0.00329886
     atom   35 type  1   force =     0.15236707   -0.00001992   -0.00389463
     atom   36 type  1   force =     0.00000000    0.02317643   -0.00332855
     atom   37 type  2   force =     0.00000000    0.00007734   -0.00209552

     Total force =     0.218242     Total SCF correction =     0.004643


     Computing stress (Cartesian axis) and pressure


     negative rho (up, down):  1.008E-04 0.000E+00
          total   stress  (Ry/bohr**3)                   (kbar)     P=  -23.01
  -0.00016921   0.00000000   0.00000000        -24.89      0.00      0.00
   0.00000000  -0.00021433   0.00000005          0.00    -31.53      0.01
   0.00000000   0.00000005  -0.00008564          0.00      0.01    -12.60


     BFGS Geometry Optimization

     number of scf cycles    =   1
     number of bfgs steps    =   0

     energy   new            =    -447.7560208641 Ry

     new trust radius        =       0.1524168344 bohr
     new conv_thr            =       0.0000360000 Ry


ATOMIC_POSITIONS (crystal)
Al       0.333335390   0.166670289   0.055556897
Al       0.333327475   0.666660676   0.055556896
Al       0.833337464   0.166674436   0.055556915
Al       0.833333677   0.666660676   0.055556896
Al      -0.000001954  -0.000000532   0.000026225
Al      -0.000000303   0.499999394   0.000026185
Al       0.500001422  -0.000000532   0.000026225
Al       0.500000826   0.500001651   0.000026242
Al       0.166673265   0.333337829   0.111111427
Al       0.166665870   0.833332247   0.111111453
Al       0.666664073   0.333337829   0.111111427
Al       0.666662819   0.833326114   0.111111406
Al       0.333333568   0.166666644   0.222222181
Al       0.333333881   0.666666580   0.222222151
Al       0.833333333   0.166666176   0.222222128
Al       0.833333174   0.666666580   0.222222151
Al      -0.000005475  -0.000001022   0.166666830
Al      -0.000001127   0.499997747   0.166666866
Al       0.500004453  -0.000001022   0.166666830
Al       0.500002176   0.500004352   0.166666785
Al       0.166666456   0.333334959   0.277777623
Al       0.166665499   0.833331505   0.277777744
Al       0.666668012   0.333334959   0.277777623
Al       0.666666011   0.833332498   0.277777745
Al       0.333330332   0.166660172   0.388888452
Al       0.333329406   0.666662824   0.388887492
Al       0.833335806   0.166671121   0.388887083
Al       0.833333894   0.666662824   0.388887492
Al       0.000014432   0.000011218   0.333332733
Al      -0.000002695   0.499994611   0.333332593
Al       0.499996786   0.000011218   0.333332733
Al       0.499991470   0.499982939   0.333333015
Al       0.152494379   0.333331353   0.444419851
Al       0.165424465   0.830849436   0.444423621
Al       0.680836483   0.333331353   0.444419851
Al       0.667911013   0.835822502   0.444423434
H        0.416669153   0.333341606   0.444431237



     Writing output data file Al_111_3_3.save/
     NEW-OLD atomic charge density approx. for the potential

     negative rho (up, down):  1.081E-04 0.000E+00

     total cpu time spent up to now is    31304.2 secs

     Self-consistent Calculation

     iteration #  1     ecut=    30.00 Ry     beta= 0.30
     Davidson diagonalization with overlap
     c_bands:  1 eigenvalues not converged
     c_bands:  3 eigenvalues not converged
     c_bands:  4 eigenvalues not converged
     c_bands:  1 eigenvalues not converged
     c_bands:  1 eigenvalues not converged
     c_bands:  1 eigenvalues not converged
     c_bands:  1 eigenvalues not converged
     c_bands:  1 eigenvalues not converged
     c_bands:  2 eigenvalues not converged
     c_bands:  2 eigenvalues not converged
     c_bands:  2 eigenvalues not converged
     c_bands:  1 eigenvalues not converged
     c_bands:  1 eigenvalues not converged
     c_bands:  2 eigenvalues not converged
     c_bands:  2 eigenvalues not converged
     c_bands:  3 eigenvalues not converged
     c_bands:  1 eigenvalues not converged
     c_bands:  1 eigenvalues not converged
     c_bands:  1 eigenvalues not converged
     c_bands:  1 eigenvalues not converged
     c_bands:  1 eigenvalues not converged
     c_bands:  1 eigenvalues not converged
     c_bands:  1 eigenvalues not converged
     c_bands:  1 eigenvalues not converged
     c_bands:  1 eigenvalues not converged
     c_bands:  2 eigenvalues not converged
     c_bands:  1 eigenvalues not converged
     c_bands:  1 eigenvalues not converged
     c_bands:  1 eigenvalues not converged
     c_bands:  2 eigenvalues not converged
     c_bands:  1 eigenvalues not converged
     c_bands:  1 eigenvalues not converged
     c_bands:  1 eigenvalues not converged
     c_bands:  2 eigenvalues not converged
     ethr =  1.00E-06,  avg # of iterations = 13.0

     negative rho (up, down):  8.891E-05 0.000E+00

     total cpu time spent up to now is    32749.0 secs

     total energy              =    -447.79565582 Ry
     Harris-Foulkes estimate   =    -447.79993993 Ry
     estimated scf accuracy    <       1.46326833 Ry

     iteration #  2     ecut=    30.00 Ry     beta= 0.30
     Davidson diagonalization with overlap
     ethr =  1.34E-03,  avg # of iterations =  1.0

     negative rho (up, down):  9.743E-05 0.000E+00

     total cpu time spent up to now is    33352.9 secs

     total energy              =    -447.78998441 Ry
     Harris-Foulkes estimate   =    -447.79624389 Ry
     estimated scf accuracy    <       0.67697140 Ry

     iteration #  3     ecut=    30.00 Ry     beta= 0.30
     Davidson diagonalization with overlap
     ethr =  6.21E-04,  avg # of iterations =  1.0

     negative rho (up, down):  8.816E-05 0.000E+00

     total cpu time spent up to now is    33955.3 secs

     total energy              =    -447.79277626 Ry
     Harris-Foulkes estimate   =    -447.79278905 Ry
     estimated scf accuracy    <       0.00033899 Ry

     iteration #  4     ecut=    30.00 Ry     beta= 0.30
     Davidson diagonalization with overlap
     c_bands:  2 eigenvalues not converged
     c_bands:  2 eigenvalues not converged
     c_bands:  5 eigenvalues not converged
     c_bands:  2 eigenvalues not converged
     c_bands:  1 eigenvalues not converged
     c_bands:  2 eigenvalues not converged
     c_bands:  1 eigenvalues not converged
     c_bands:  2 eigenvalues not converged
     c_bands:  2 eigenvalues not converged
     c_bands:  2 eigenvalues not converged
     c_bands:  2 eigenvalues not converged
     c_bands:  1 eigenvalues not converged
     c_bands:  1 eigenvalues not converged
     c_bands:  2 eigenvalues not converged
     c_bands:  2 eigenvalues not converged
     ethr =  3.11E-07,  avg # of iterations = 12.1

     negative rho (up, down):  8.311E-05 0.000E+00

     total cpu time spent up to now is    35000.5 secs

     total energy              =    -447.79482082 Ry
     Harris-Foulkes estimate   =    -447.79504773 Ry
     estimated scf accuracy    <       0.31683816 Ry

     iteration #  5     ecut=    30.00 Ry     beta= 0.30
     Davidson diagonalization with overlap
     c_bands:  3 eigenvalues not converged
     ethr =  3.11E-07,  avg # of iterations =  3.6

     negative rho (up, down):  7.734E-05 0.000E+00

     total cpu time spent up to now is    35658.7 secs

     total energy              =    -447.79478881 Ry
     Harris-Foulkes estimate   =    -447.79483759 Ry
     estimated scf accuracy    <       0.23440331 Ry

     iteration #  6     ecut=    30.00 Ry     beta= 0.30
     Davidson diagonalization with overlap
     ethr =  3.11E-07,  avg # of iterations =  2.0

     negative rho (up, down):  6.832E-05 0.000E+00

     total cpu time spent up to now is    36309.4 secs

     total energy              =    -447.79446945 Ry
     Harris-Foulkes estimate   =    -447.79479614 Ry
     estimated scf accuracy    <       0.23075099 Ry

     iteration #  7     ecut=    30.00 Ry     beta= 0.30
     Davidson diagonalization with overlap
     ethr =  3.11E-07,  avg # of iterations =  3.5

     negative rho (up, down):  6.918E-05 0.000E+00

     total cpu time spent up to now is    36968.9 secs

     total energy              =    -447.79455642 Ry
     Harris-Foulkes estimate   =    -447.79451756 Ry
     estimated scf accuracy    <       0.12030029 Ry

     iteration #  8     ecut=    30.00 Ry     beta= 0.30
     Davidson diagonalization with overlap
     ethr =  3.11E-07,  avg # of iterations =  1.0

     negative rho (up, down):  5.652E-05 0.000E+00

     total cpu time spent up to now is    37581.6 secs

     total energy              =    -447.79419343 Ry
     Harris-Foulkes estimate   =    -447.79455761 Ry
     estimated scf accuracy    <       0.12987025 Ry

     iteration #  9     ecut=    30.00 Ry     beta= 0.30
     Davidson diagonalization with overlap
     ethr =  3.11E-07,  avg # of iterations =  4.8

     negative rho (up, down):  5.226E-05 0.000E+00

     total cpu time spent up to now is    38265.6 secs

     total energy              =    -447.79420159 Ry
     Harris-Foulkes estimate   =    -447.79428143 Ry
     estimated scf accuracy    <       0.03115540 Ry

     iteration # 10     ecut=    30.00 Ry     beta= 0.30
     Davidson diagonalization with overlap
     ethr =  3.11E-07,  avg # of iterations =  3.2

     negative rho (up, down):  5.590E-05 0.000E+00

     total cpu time spent up to now is    38924.7 secs

     total energy              =    -447.79425083 Ry
     Harris-Foulkes estimate   =    -447.79422155 Ry
     estimated scf accuracy    <       0.00771354 Ry

     iteration # 11     ecut=    30.00 Ry     beta= 0.30
     Davidson diagonalization with overlap
     ethr =  3.11E-07,  avg # of iterations =  1.4

     negative rho (up, down):  5.639E-05 0.000E+00

     total cpu time spent up to now is    39551.8 secs

     total energy              =    -447.79426641 Ry
     Harris-Foulkes estimate   =    -447.79425811 Ry
     estimated scf accuracy    <       0.01707334 Ry

     iteration # 12     ecut=    30.00 Ry     beta= 0.30
     Davidson diagonalization with overlap
     ethr =  3.11E-07,  avg # of iterations =  1.0

     negative rho (up, down):  4.594E-05 0.000E+00

     total cpu time spent up to now is    40153.7 secs

     total energy              =    -447.79413086 Ry
     Harris-Foulkes estimate   =    -447.79426676 Ry
     estimated scf accuracy    <       0.01895348 Ry

     iteration # 13     ecut=    30.00 Ry     beta= 0.30
     Davidson diagonalization with overlap
     ethr =  3.11E-07,  avg # of iterations =  4.2

     negative rho (up, down):  4.662E-05 0.000E+00

     total cpu time spent up to now is    40813.5 secs

     total energy              =    -447.79421835 Ry
     Harris-Foulkes estimate   =    -447.79420817 Ry
     estimated scf accuracy    <       0.00189708 Ry

     iteration # 14     ecut=    30.00 Ry     beta= 0.30
     Davidson diagonalization with overlap
     ethr =  3.11E-07,  avg # of iterations =  2.2

     negative rho (up, down):  4.583E-05 0.000E+00

     total cpu time spent up to now is    41439.6 secs

     total energy              =    -447.79421095 Ry
     Harris-Foulkes estimate   =    -447.79422468 Ry
     estimated scf accuracy    <       0.00594064 Ry

     iteration # 15     ecut=    30.00 Ry     beta= 0.30
     Davidson diagonalization with overlap
     ethr =  3.11E-07,  avg # of iterations =  1.0

     negative rho (up, down):  5.057E-05 0.000E+00

     total cpu time spent up to now is    42041.8 secs

     total energy              =    -447.79418285 Ry
     Harris-Foulkes estimate   =    -447.79421286 Ry
     estimated scf accuracy    <       0.00343381 Ry

     iteration # 16     ecut=    30.00 Ry     beta= 0.30
     Davidson diagonalization with overlap
     ethr =  3.11E-07,  avg # of iterations =  3.4

     negative rho (up, down):  4.536E-05 0.000E+00

     total cpu time spent up to now is    42707.4 secs

     total energy              =    -447.79420418 Ry
     Harris-Foulkes estimate   =    -447.79421709 Ry
     estimated scf accuracy    <       0.00147140 Ry

     iteration # 17     ecut=    30.00 Ry     beta= 0.30
     Davidson diagonalization with overlap
     ethr =  3.11E-07,  avg # of iterations =  1.0

     negative rho (up, down):  4.720E-05 0.000E+00

     total cpu time spent up to now is    43315.6 secs

     total energy              =    -447.79419430 Ry
     Harris-Foulkes estimate   =    -447.79420658 Ry
     estimated scf accuracy    <       0.00053979 Ry

     iteration # 18     ecut=    30.00 Ry     beta= 0.30
     Davidson diagonalization with overlap
     ethr =  3.11E-07,  avg # of iterations =  2.7

     negative rho (up, down):  4.175E-05 0.000E+00

     total cpu time spent up to now is    43947.5 secs

     total energy              =    -447.79421454 Ry
     Harris-Foulkes estimate   =    -447.79420689 Ry
     estimated scf accuracy    <       0.00042594 Ry

     iteration # 19     ecut=    30.00 Ry     beta= 0.30
     Davidson diagonalization with overlap
     ethr =  3.11E-07,  avg # of iterations =  1.9

     negative rho (up, down):  4.117E-05 0.000E+00

     total cpu time spent up to now is    44574.2 secs

     total energy              =    -447.79422715 Ry
     Harris-Foulkes estimate   =    -447.79422665 Ry
     estimated scf accuracy    <       0.00550578 Ry

     iteration # 20     ecut=    30.00 Ry     beta= 0.30
     Davidson diagonalization with overlap
     ethr =  3.11E-07,  avg # of iterations =  1.1

     negative rho (up, down):  4.093E-05 0.000E+00

     total cpu time spent up to now is    45179.0 secs

     total energy              =    -447.79423093 Ry
     Harris-Foulkes estimate   =    -447.79422790 Ry
     estimated scf accuracy    <       0.00522860 Ry

     iteration # 21     ecut=    30.00 Ry     beta= 0.30
     Davidson diagonalization with overlap
     ethr =  3.11E-07,  avg # of iterations =  1.1

     negative rho (up, down):  3.829E-05 0.000E+00

     total cpu time spent up to now is    45788.7 secs

     total energy              =    -447.79423975 Ry
     Harris-Foulkes estimate   =    -447.79423163 Ry
     estimated scf accuracy    <       0.00538310 Ry

     iteration # 22     ecut=    30.00 Ry     beta= 0.30
     Davidson diagonalization with overlap
     ethr =  3.11E-07,  avg # of iterations =  1.9

     negative rho (up, down):  3.754E-05 0.000E+00

     total cpu time spent up to now is    46412.0 secs

     total energy              =    -447.79422635 Ry
     Harris-Foulkes estimate   =    -447.79424215 Ry
     estimated scf accuracy    <       0.00717176 Ry

     iteration # 23     ecut=    30.00 Ry     beta= 0.30
     Davidson diagonalization with overlap
     ethr =  3.11E-07,  avg # of iterations =  1.0

     negative rho (up, down):  4.532E-05 0.000E+00

     total cpu time spent up to now is    47003.0 secs

     total energy              =    -447.79420014 Ry
     Harris-Foulkes estimate   =    -447.79422754 Ry
     estimated scf accuracy    <       0.00535340 Ry

     iteration # 24     ecut=    30.00 Ry     beta= 0.30
     Davidson diagonalization with overlap
     ethr =  3.11E-07,  avg # of iterations =  2.4

     negative rho (up, down):  4.465E-05 0.000E+00

     total cpu time spent up to now is    47622.3 secs

     total energy              =    -447.79420157 Ry
     Harris-Foulkes estimate   =    -447.79420789 Ry
     estimated scf accuracy    <       0.00089741 Ry

     iteration # 25     ecut=    30.00 Ry     beta= 0.30
     Davidson diagonalization with overlap
     c_bands:  1 eigenvalues not converged
     c_bands:  1 eigenvalues not converged
     ethr =  3.11E-07,  avg # of iterations =  1.6

     negative rho (up, down):  4.177E-05 0.000E+00

     total cpu time spent up to now is    48232.2 secs

     total energy              =    -447.79420579 Ry
     Harris-Foulkes estimate   =    -447.79420409 Ry
     estimated scf accuracy    <       0.00018910 Ry

     iteration # 26     ecut=    30.00 Ry     beta= 0.30
     Davidson diagonalization with overlap
     ethr =  1.73E-07,  avg # of iterations =  1.1

     negative rho (up, down):  4.730E-05 0.000E+00

     total cpu time spent up to now is    48837.0 secs

     total energy              =    -447.79419962 Ry
     Harris-Foulkes estimate   =    -447.79420626 Ry
     estimated scf accuracy    <       0.00038096 Ry

     iteration # 27     ecut=    30.00 Ry     beta= 0.30
     Davidson diagonalization with overlap
     ethr =  1.73E-07,  avg # of iterations =  2.9

     negative rho (up, down):  4.347E-05 0.000E+00

     total cpu time spent up to now is    49484.0 secs

     total energy              =    -447.79420202 Ry
     Harris-Foulkes estimate   =    -447.79420451 Ry
     estimated scf accuracy    <       0.00005020 Ry

     iteration # 28     ecut=    30.00 Ry     beta= 0.30
     Davidson diagonalization with overlap
     c_bands:  1 eigenvalues not converged
     ethr =  4.61E-08,  avg # of iterations =  3.7

     negative rho (up, down):  4.384E-05 0.000E+00

     total cpu time spent up to now is    50127.0 secs

     total energy              =    -447.79420747 Ry
     Harris-Foulkes estimate   =    -447.79420723 Ry
     estimated scf accuracy    <       0.00067279 Ry

     iteration # 29     ecut=    30.00 Ry     beta= 0.30
     Davidson diagonalization with overlap
     ethr =  4.61E-08,  avg # of iterations =  1.0

     negative rho (up, down):  4.416E-05 0.000E+00

     total cpu time spent up to now is    50732.8 secs

     total energy              =    -447.79420342 Ry
     Harris-Foulkes estimate   =    -447.79420752 Ry
     estimated scf accuracy    <       0.00067207 Ry

     iteration # 30     ecut=    30.00 Ry     beta= 0.30
     Davidson diagonalization with overlap
     ethr =  4.61E-08,  avg # of iterations =  1.8

     negative rho (up, down):  4.350E-05 0.000E+00

     total cpu time spent up to now is    51348.2 secs

     total energy              =    -447.79420457 Ry
     Harris-Foulkes estimate   =    -447.79420465 Ry
     estimated scf accuracy    <       0.00010891 Ry

     iteration # 31     ecut=    30.00 Ry     beta= 0.30
     Davidson diagonalization with overlap
     ethr =  4.61E-08,  avg # of iterations =  1.1

     negative rho (up, down):  4.108E-05 0.000E+00

     total cpu time spent up to now is    51967.2 secs

     total energy              =    -447.79420417 Ry
     Harris-Foulkes estimate   =    -447.79420462 Ry
     estimated scf accuracy    <       0.00007941 Ry

     iteration # 32     ecut=    30.00 Ry     beta= 0.30
     Davidson diagonalization with overlap
     c_bands:  1 eigenvalues not converged
     c_bands:  1 eigenvalues not converged
     ethr =  4.61E-08,  avg # of iterations =  2.0

     negative rho (up, down):  9.265E-05 0.000E+00

     total cpu time spent up to now is    52562.8 secs

     End of self-consistent calculation

     Number of k-points >= 100: set verbosity='high' to print the bands.

     the Fermi energy is    -1.0086 ev

!    total energy              =    -447.79420485 Ry
     Harris-Foulkes estimate   =    -447.79420483 Ry
     estimated scf accuracy    <       0.00000277 Ry

     The total energy is the sum of the following terms:

     one-electron contribution =   -9769.85670806 Ry
     hartree contribution      =    4902.82478176 Ry
     xc contribution           =    -356.02421938 Ry
     ewald contribution        =    4775.26001512 Ry
     smearing contrib. (-TS)   =       0.00192572 Ry

     convergence has been achieved in  32 iterations

     negative rho (up, down):  9.265E-05 0.000E+00

     Forces acting on atoms (cartesian axes, Ry/au):

     atom    1 type  1   force =     0.00000000    0.00002737    0.00021545
     atom    2 type  1   force =    -0.00005399   -0.00005926    0.00021778
     atom    3 type  1   force =     0.00000000    0.00008937    0.00021799
     atom    4 type  1   force =     0.00005399   -0.00005926    0.00021778
     atom    5 type  1   force =     0.00006088   -0.00000957    0.00415368
     atom    6 type  1   force =     0.00000000    0.00004323    0.00414205
     atom    7 type  1   force =    -0.00006088   -0.00000957    0.00415368
     atom    8 type  1   force =     0.00000000   -0.00002707    0.00416058
     atom    9 type  1   force =     0.00003939    0.00002910    0.00004893
     atom   10 type  1   force =     0.00000000   -0.00000625    0.00005046
     atom   11 type  1   force =    -0.00003939    0.00002910    0.00004893
     atom   12 type  1   force =     0.00000000   -0.00005180    0.00004552
     atom   13 type  1   force =     0.00000000   -0.00000081   -0.00001609
     atom   14 type  1   force =    -0.00000278   -0.00000060   -0.00000814
     atom   15 type  1   force =     0.00000000    0.00000209    0.00000240
     atom   16 type  1   force =     0.00000278   -0.00000060   -0.00000814
     atom   17 type  1   force =     0.00000261   -0.00000850    0.00002516
     atom   18 type  1   force =     0.00000000    0.00001056    0.00002953
     atom   19 type  1   force =    -0.00000261   -0.00000850    0.00002516
     atom   20 type  1   force =     0.00000000    0.00000757    0.00001952
     atom   21 type  1   force =     0.00008661    0.00001622   -0.00002165
     atom   22 type  1   force =     0.00000000    0.00003400   -0.00000352
     atom   23 type  1   force =    -0.00008661    0.00001622   -0.00002165
     atom   24 type  1   force =     0.00000000   -0.00006649   -0.00000297
     atom   25 type  1   force =     0.00000000    0.00018741   -0.00017600
     atom   26 type  1   force =     0.00034731   -0.00007067   -0.00023879
     atom   27 type  1   force =     0.00000000   -0.00012785   -0.00022158
     atom   28 type  1   force =    -0.00034731   -0.00007067   -0.00023879
     atom   29 type  1   force =     0.00002563    0.00008662   -0.00007598
     atom   30 type  1   force =     0.00000000   -0.00007118   -0.00004807
     atom   31 type  1   force =    -0.00002563    0.00008662   -0.00007598
     atom   32 type  1   force =     0.00000000   -0.00009995   -0.00009009
     atom   33 type  1   force =    -0.09241780   -0.00002124   -0.00428646
     atom   34 type  1   force =     0.00000000   -0.01724438   -0.00337955
     atom   35 type  1   force =     0.09241780   -0.00002124   -0.00428646
     atom   36 type  1   force =     0.00000000    0.01728689   -0.00340042
     atom   37 type  2   force =     0.00000000    0.00008312   -0.00117425

     Total force =     0.133451     Total SCF correction =     0.001389


     Computing stress (Cartesian axis) and pressure


     negative rho (up, down):  9.265E-05 0.000E+00
          total   stress  (Ry/bohr**3)                   (kbar)     P=  -23.62
  -0.00018277   0.00000000   0.00000000        -26.89      0.00      0.00
   0.00000000  -0.00021359   0.00000006          0.00    -31.42      0.01
   0.00000000   0.00000006  -0.00008537          0.00      0.01    -12.56


     number of scf cycles    =   2
     number of bfgs steps    =   1

     energy   old            =    -447.7560208641 Ry
     energy   new            =    -447.7942048529 Ry

     CASE: energy  _new < energy  _old

     new trust radius        =       0.1676585179 bohr
     new conv_thr            =       0.0000332704 Ry


ATOMIC_POSITIONS (crystal)
Al       0.333338051   0.166675611   0.055559364
Al       0.333312639   0.666649161   0.055559390
Al       0.833346144   0.166691797   0.055559411
Al       0.833336998   0.666649161   0.055559390
Al       0.000007333  -0.000002390   0.000073789
Al       0.000003886   0.500007773   0.000073616
Al       0.499990277  -0.000002390   0.000073789
Al       0.499998205   0.499996409   0.000073885
Al       0.166682728   0.333343488   0.111111987
Al       0.166665262   0.833331029   0.111112031
Al       0.666660269   0.333343488   0.111111987
Al       0.666657781   0.833316039   0.111111927
Al       0.333333490   0.166666488   0.222221997
Al       0.333333358   0.666666463   0.222222058
Al       0.833333536   0.166666580   0.222222155
Al       0.833333581   0.666666463   0.222222058
Al      -0.000005883  -0.000002674   0.166667118
Al      -0.000000107   0.499999785   0.166667204
Al       0.500003209  -0.000002674   0.166667118
Al       0.500002919   0.500005837   0.166667009
Al       0.166682571   0.333338111   0.277777375
Al       0.166668792   0.833338089   0.277777703
Al       0.666655049   0.333338111   0.277777375
Al       0.666659563   0.833319602   0.277777710
Al       0.333348487   0.166696482   0.388886440
Al       0.333380855   0.666649106   0.388884759
Al       0.833323422   0.166646353   0.388884544
Al       0.833268727   0.666649106   0.388884759
Al       0.000027193   0.000028059   0.333331863
Al      -0.000009606   0.499980788   0.333332041
Al       0.500000866   0.000028059   0.333331863
Al       0.499981745   0.499963490   0.333331984
Al       0.136915765   0.333327226   0.444370777
Al       0.163747598   0.827495702   0.444384924
Al       0.696410970   0.333327226   0.444370777
Al       0.669592012   0.839184499   0.444384497
H        0.416677228   0.333357756   0.444417766



     Writing output data file Al_111_3_3.save/
     NEW-OLD atomic charge density approx. for the potential

     negative rho (up, down):  1.008E-04 0.000E+00

     total cpu time spent up to now is    53113.3 secs

     Self-consistent Calculation

     iteration #  1     ecut=    30.00 Ry     beta= 0.30
     Davidson diagonalization with overlap
     c_bands:  1 eigenvalues not converged
     c_bands:  4 eigenvalues not converged
     ethr =  1.00E-06,  avg # of iterations =  8.9

     negative rho (up, down):  8.905E-05 0.000E+00

     total cpu time spent up to now is    54461.0 secs

     total energy              =    -447.81691543 Ry
     Harris-Foulkes estimate   =    -447.81829084 Ry
     estimated scf accuracy    <       0.02541170 Ry

     iteration #  2     ecut=    30.00 Ry     beta= 0.30
     Davidson diagonalization with overlap
     ethr =  2.33E-05,  avg # of iterations =  1.0

     negative rho (up, down):  9.696E-05 0.000E+00

     total cpu time spent up to now is    55067.5 secs

     total energy              =    -447.81480079 Ry
     Harris-Foulkes estimate   =    -447.81703494 Ry
     estimated scf accuracy    <       0.01286982 Ry

     iteration #  3     ecut=    30.00 Ry     beta= 0.30
     Davidson diagonalization with overlap
     ethr =  1.18E-05,  avg # of iterations =  2.4

     negative rho (up, down):  8.862E-05 0.000E+00

     total cpu time spent up to now is    55715.9 secs

     total energy              =    -447.81570183 Ry
     Harris-Foulkes estimate   =    -447.81569680 Ry
     estimated scf accuracy    <       0.00012657 Ry

     iteration #  4     ecut=    30.00 Ry     beta= 0.30
     Davidson diagonalization with overlap
     c_bands:  1 eigenvalues not converged
     c_bands:  1 eigenvalues not converged
     c_bands:  1 eigenvalues not converged
     c_bands:  1 eigenvalues not converged
     c_bands:  1 eigenvalues not converged
     ethr =  1.16E-07,  avg # of iterations =  6.8

     negative rho (up, down):  8.704E-05 0.000E+00

     total cpu time spent up to now is    56541.0 secs

     total energy              =    -447.81576774 Ry
     Harris-Foulkes estimate   =    -447.81576979 Ry
     estimated scf accuracy    <       0.00375631 Ry

     iteration #  5     ecut=    30.00 Ry     beta= 0.30
     Davidson diagonalization with overlap
     ethr =  1.16E-07,  avg # of iterations =  2.4

     negative rho (up, down):  8.657E-05 0.000E+00

     total cpu time spent up to now is    57187.8 secs

     total energy              =    -447.81573966 Ry
     Harris-Foulkes estimate   =    -447.81577416 Ry
     estimated scf accuracy    <       0.00593302 Ry

     iteration #  6     ecut=    30.00 Ry     beta= 0.30
     Davidson diagonalization with overlap
     ethr =  1.16E-07,  avg # of iterations =  1.8

     negative rho (up, down):  8.456E-05 0.000E+00

     total cpu time spent up to now is    57805.6 secs

     total energy              =    -447.81574327 Ry
     Harris-Foulkes estimate   =    -447.81574896 Ry
     estimated scf accuracy    <       0.00145659 Ry

     iteration #  7     ecut=    30.00 Ry     beta= 0.30
     Davidson diagonalization with overlap
     ethr =  1.16E-07,  avg # of iterations =  2.0

     negative rho (up, down):  8.153E-05 0.000E+00

     total cpu time spent up to now is    58441.4 secs

     total energy              =    -447.81574190 Ry
     Harris-Foulkes estimate   =    -447.81574532 Ry
     estimated scf accuracy    <       0.00065617 Ry

     iteration #  8     ecut=    30.00 Ry     beta= 0.30
     Davidson diagonalization with overlap
     ethr =  1.16E-07,  avg # of iterations =  1.3

     negative rho (up, down):  8.085E-05 0.000E+00

     total cpu time spent up to now is    59057.7 secs

     total energy              =    -447.81574376 Ry
     Harris-Foulkes estimate   =    -447.81574390 Ry
     estimated scf accuracy    <       0.00018875 Ry

     iteration #  9     ecut=    30.00 Ry     beta= 0.30
     Davidson diagonalization with overlap
     ethr =  1.16E-07,  avg # of iterations =  1.0

     negative rho (up, down):  7.540E-05 0.000E+00

     total cpu time spent up to now is    59678.2 secs

     total energy              =    -447.81574360 Ry
     Harris-Foulkes estimate   =    -447.81574388 Ry
     estimated scf accuracy    <       0.00016272 Ry

     iteration # 10     ecut=    30.00 Ry     beta= 0.30
     Davidson diagonalization with overlap
     ethr =  1.16E-07,  avg # of iterations =  1.2

     negative rho (up, down):  7.402E-05 0.000E+00

     total cpu time spent up to now is    60282.1 secs

     total energy              =    -447.81574367 Ry
     Harris-Foulkes estimate   =    -447.81574426 Ry
     estimated scf accuracy    <       0.00006216 Ry

     iteration # 11     ecut=    30.00 Ry     beta= 0.30
     Davidson diagonalization with overlap
     c_bands:  1 eigenvalues not converged
     ethr =  5.70E-08,  avg # of iterations =  2.2

     negative rho (up, down):  8.517E-05 0.000E+00

     total cpu time spent up to now is    60887.7 secs

     End of self-consistent calculation

     Number of k-points >= 100: set verbosity='high' to print the bands.

     the Fermi energy is    -0.9924 ev

!    total energy              =    -447.81573520 Ry
     Harris-Foulkes estimate   =    -447.81574513 Ry
     estimated scf accuracy    <       0.00001000 Ry

     The total energy is the sum of the following terms:

     one-electron contribution =   -9771.89106318 Ry
     hartree contribution      =    4903.83261439 Ry
     xc contribution           =    -356.01221103 Ry
     ewald contribution        =    4776.25302752 Ry
     smearing contrib. (-TS)   =       0.00189709 Ry

     convergence has been achieved in  11 iterations

     negative rho (up, down):  8.517E-05 0.000E+00

     Forces acting on atoms (cartesian axes, Ry/au):

     atom    1 type  1   force =     0.00000000    0.00002874    0.00018553
     atom    2 type  1   force =     0.00000698   -0.00002482    0.00019563
     atom    3 type  1   force =     0.00000000    0.00002062    0.00019201
     atom    4 type  1   force =    -0.00000698   -0.00002482    0.00019563
     atom    5 type  1   force =     0.00001946   -0.00000241    0.00417983
     atom    6 type  1   force =     0.00000000    0.00001266    0.00415777
     atom    7 type  1   force =    -0.00001946   -0.00000241    0.00417983
     atom    8 type  1   force =     0.00000000   -0.00000981    0.00419506
     atom    9 type  1   force =     0.00002058    0.00002576    0.00004505
     atom   10 type  1   force =     0.00000000   -0.00001321    0.00004474
     atom   11 type  1   force =    -0.00002058    0.00002576    0.00004505
     atom   12 type  1   force =     0.00000000   -0.00003693    0.00004296
     atom   13 type  1   force =     0.00000000   -0.00001315   -0.00003086
     atom   14 type  1   force =    -0.00000383    0.00001047   -0.00000835
     atom   15 type  1   force =     0.00000000   -0.00000887    0.00002162
     atom   16 type  1   force =     0.00000383    0.00001047   -0.00000835
     atom   17 type  1   force =     0.00000903   -0.00001006    0.00002655
     atom   18 type  1   force =     0.00000000    0.00001599    0.00003472
     atom   19 type  1   force =    -0.00000903   -0.00001006    0.00002655
     atom   20 type  1   force =     0.00000000    0.00000543    0.00001581
     atom   21 type  1   force =     0.00010242    0.00000017   -0.00002561
     atom   22 type  1   force =     0.00000000    0.00005828    0.00000437
     atom   23 type  1   force =    -0.00010242    0.00000017   -0.00002561
     atom   24 type  1   force =     0.00000000   -0.00005979    0.00000520
     atom   25 type  1   force =     0.00000000    0.00030597   -0.00042887
     atom   26 type  1   force =     0.00072789    0.00003328   -0.00032733
     atom   27 type  1   force =     0.00000000   -0.00045391   -0.00029924
     atom   28 type  1   force =    -0.00072789    0.00003328   -0.00032733
     atom   29 type  1   force =    -0.00018880    0.00006986   -0.00009178
     atom   30 type  1   force =     0.00000000   -0.00017787    0.00001058
     atom   31 type  1   force =     0.00018880    0.00006986   -0.00009178
     atom   32 type  1   force =     0.00000000    0.00003959   -0.00014384
     atom   33 type  1   force =    -0.02892248   -0.00001715   -0.00430794
     atom   34 type  1   force =     0.00000000   -0.00951981   -0.00360409
     atom   35 type  1   force =     0.02892248   -0.00001715   -0.00430794
     atom   36 type  1   force =     0.00000000    0.00954613   -0.00361730
     atom   37 type  2   force =     0.00000000    0.00008976   -0.00015823

     Total force =     0.044610     Total SCF correction =     0.003675


     Computing stress (Cartesian axis) and pressure


     negative rho (up, down):  8.517E-05 0.000E+00
          total   stress  (Ry/bohr**3)                   (kbar)     P=  -23.86
  -0.00018936  -0.00000000   0.00000000        -27.86     -0.00      0.00
  -0.00000000  -0.00021202   0.00000005         -0.00    -31.19      0.01
   0.00000000   0.00000005  -0.00008521          0.00      0.01    -12.53


     number of scf cycles    =   3
     number of bfgs steps    =   2

     energy   old            =    -447.7942048529 Ry
     energy   new            =    -447.8157351997 Ry

     CASE: energy  _new < energy  _old

     new trust radius        =       0.0807434939 bohr
     new conv_thr            =       0.0000104121 Ry


ATOMIC_POSITIONS (crystal)
Al       0.333340932   0.166681374   0.055561652
Al       0.333308356   0.666642661   0.055561779
Al       0.833349702   0.166698913   0.055561767
Al       0.833334781   0.666642661   0.055561779
Al       0.000011837  -0.000003182   0.000123560
Al       0.000005806   0.500011612   0.000123151
Al       0.499984981  -0.000003182   0.000123560
Al       0.499996857   0.499993714   0.000123817
Al       0.166689724   0.333348852   0.111112534
Al       0.166664072   0.833328651   0.111112579
Al       0.666658637   0.333348852   0.111112534
Al       0.666653719   0.833307914   0.111112446
Al       0.333332425   0.166664359   0.222221667
Al       0.333333552   0.666668107   0.222221959
Al       0.833332872   0.166665253   0.222222364
Al       0.833335031   0.666668107   0.222221959
Al      -0.000005561  -0.000004644   0.166667431
Al       0.000001381   0.500002763   0.166667605
Al       0.500000917  -0.000004644   0.166667431
Al       0.500003526   0.500007052   0.166667207
Al       0.166700229   0.333338834   0.277777079
Al       0.166674146   0.833348799   0.277777735
Al       0.666638114   0.333338834   0.277777079
Al       0.666653391   0.833307259   0.277777751
Al       0.333376801   0.166753111   0.388881972
Al       0.333495141   0.666651398   0.388881081
Al       0.833284572   0.166568653   0.388881170
Al       0.833156732   0.666651398   0.388881081
Al       0.000009572   0.000042930   0.333330808
Al      -0.000025300   0.499949400   0.333332016
Al       0.500033357   0.000042930   0.333330808
Al       0.499982728   0.499965457   0.333330407
Al       0.129442252   0.333323581   0.444319483
Al       0.162616170   0.825232845   0.444342523
Al       0.703880838   0.333323581   0.444319483
Al       0.670726453   0.841453381   0.444341919
H        0.416686165   0.333375629   0.444413264



     Writing output data file Al_111_3_3.save/
     NEW-OLD atomic charge density approx. for the potential

     negative rho (up, down):  8.833E-05 0.000E+00

     total cpu time spent up to now is    61438.7 secs

     Self-consistent Calculation

     iteration #  1     ecut=    30.00 Ry     beta= 0.30
     Davidson diagonalization with overlap
     c_bands:  1 eigenvalues not converged
     c_bands:  1 eigenvalues not converged
     c_bands:  3 eigenvalues not converged
     c_bands:  1 eigenvalues not converged
     c_bands:  1 eigenvalues not converged
     c_bands:  1 eigenvalues not converged
     c_bands:  2 eigenvalues not converged
     c_bands:  1 eigenvalues not converged
     c_bands:  1 eigenvalues not converged
     c_bands:  1 eigenvalues not converged
     c_bands:  2 eigenvalues not converged
     c_bands:  1 eigenvalues not converged
     c_bands:  1 eigenvalues not converged
     c_bands:  2 eigenvalues not converged
     c_bands:  4 eigenvalues not converged
     c_bands:  1 eigenvalues not converged
     c_bands:  1 eigenvalues not converged
     c_bands:  1 eigenvalues not converged
     c_bands:  1 eigenvalues not converged
     c_bands:  1 eigenvalues not converged
     c_bands:  2 eigenvalues not converged
     c_bands:  1 eigenvalues not converged
     c_bands:  2 eigenvalues not converged
     c_bands:  1 eigenvalues not converged
     c_bands:  2 eigenvalues not converged
     c_bands:  1 eigenvalues not converged
     c_bands:  1 eigenvalues not converged
     c_bands:  1 eigenvalues not converged
     c_bands:  1 eigenvalues not converged
     c_bands:  2 eigenvalues not converged
     c_bands:  2 eigenvalues not converged
     ethr =  1.00E-06,  avg # of iterations = 12.4

     negative rho (up, down):  1.066E-04 0.000E+00

     total cpu time spent up to now is    62797.3 secs

     total energy              =    -447.81898436 Ry
     Harris-Foulkes estimate   =    -447.82341453 Ry
     estimated scf accuracy    <       2.17663732 Ry

     iteration #  2     ecut=    30.00 Ry     beta= 0.30
     Davidson diagonalization with overlap
     ethr =  2.00E-03,  avg # of iterations =  1.0

     negative rho (up, down):  2.769E-04 0.000E+00

     total cpu time spent up to now is    63397.6 secs

     total energy              =    -447.81334570 Ry
     Harris-Foulkes estimate   =    -447.81967428 Ry
     estimated scf accuracy    <       1.00246986 Ry

     iteration #  3     ecut=    30.00 Ry     beta= 0.30
     Davidson diagonalization with overlap
     ethr =  9.20E-04,  avg # of iterations =  1.0

     negative rho (up, down):  3.616E-04 0.000E+00

     total cpu time spent up to now is    64022.9 secs

     total energy              =    -447.81638759 Ry
     Harris-Foulkes estimate   =    -447.81639541 Ry
     estimated scf accuracy    <       0.00072269 Ry

     iteration #  4     ecut=    30.00 Ry     beta= 0.30
     Davidson diagonalization with overlap
     c_bands:  2 eigenvalues not converged
     c_bands:  2 eigenvalues not converged
     c_bands:  5 eigenvalues not converged
     c_bands:  2 eigenvalues not converged
     c_bands:  2 eigenvalues not converged
     c_bands:  1 eigenvalues not converged
     c_bands:  2 eigenvalues not converged
     c_bands:  1 eigenvalues not converged
     c_bands:  1 eigenvalues not converged
     c_bands:  2 eigenvalues not converged
     c_bands:  2 eigenvalues not converged
     c_bands:  2 eigenvalues not converged
     c_bands:  2 eigenvalues not converged
     c_bands:  2 eigenvalues not converged
     c_bands:  2 eigenvalues not converged
     c_bands:  1 eigenvalues not converged
     c_bands:  1 eigenvalues not converged
     c_bands:  2 eigenvalues not converged
     c_bands:  3 eigenvalues not converged
     c_bands:  1 eigenvalues not converged
     c_bands:  1 eigenvalues not converged
     c_bands:  1 eigenvalues not converged
     c_bands:  1 eigenvalues not converged
     c_bands:  2 eigenvalues not converged
     ethr =  6.63E-07,  avg # of iterations = 12.6

     negative rho (up, down):  3.728E-04 0.000E+00

     total cpu time spent up to now is    64977.0 secs

     total energy              =    -447.81915840 Ry
     Harris-Foulkes estimate   =    -447.81940051 Ry
     estimated scf accuracy    <       0.49077354 Ry

     iteration #  5     ecut=    30.00 Ry     beta= 0.30
     Davidson diagonalization with overlap
     c_bands:  1 eigenvalues not converged
     c_bands:  4 eigenvalues not converged
     c_bands:  1 eigenvalues not converged
     c_bands:  1 eigenvalues not converged
     c_bands:  1 eigenvalues not converged
     c_bands:  1 eigenvalues not converged
     ethr =  6.63E-07,  avg # of iterations =  3.6

     negative rho (up, down):  3.654E-04 0.000E+00

     total cpu time spent up to now is    65627.1 secs

     total energy              =    -447.81931615 Ry
     Harris-Foulkes estimate   =    -447.81917775 Ry
     estimated scf accuracy    <       0.42002374 Ry

     iteration #  6     ecut=    30.00 Ry     beta= 0.30
     Davidson diagonalization with overlap
     ethr =  6.63E-07,  avg # of iterations =  1.0

     negative rho (up, down):  4.457E-04 0.000E+00

     total cpu time spent up to now is    66247.5 secs

     total energy              =    -447.82061067 Ry
     Harris-Foulkes estimate   =    -447.81932063 Ry
     estimated scf accuracy    <       0.46607536 Ry

     iteration #  7     ecut=    30.00 Ry     beta= 0.30
     Davidson diagonalization with overlap
     c_bands:  1 eigenvalues not converged
     ethr =  6.63E-07,  avg # of iterations =  5.4

     negative rho (up, down):  4.118E-04 0.000E+00

     total cpu time spent up to now is    66972.6 secs

     total energy              =    -447.81832631 Ry
     Harris-Foulkes estimate   =    -447.82104929 Ry
     estimated scf accuracy    <       1.09055632 Ry

     iteration #  8     ecut=    30.00 Ry     beta= 0.30
     Davidson diagonalization with overlap
     c_bands:  1 eigenvalues not converged
     c_bands:  1 eigenvalues not converged
     c_bands:  1 eigenvalues not converged
     c_bands:  1 eigenvalues not converged
     c_bands:  1 eigenvalues not converged
     c_bands:  1 eigenvalues not converged
     c_bands:  1 eigenvalues not converged
     c_bands:  1 eigenvalues not converged
     c_bands:  1 eigenvalues not converged
     c_bands:  1 eigenvalues not converged
     c_bands:  1 eigenvalues not converged
     ethr =  6.63E-07,  avg # of iterations =  6.0

     negative rho (up, down):  3.961E-04 0.000E+00

     total cpu time spent up to now is    67684.1 secs

     total energy              =    -447.81903154 Ry
     Harris-Foulkes estimate   =    -447.81896672 Ry
     estimated scf accuracy    <       0.31067249 Ry

     iteration #  9     ecut=    30.00 Ry     beta= 0.30
     Davidson diagonalization with overlap
     ethr =  6.63E-07,  avg # of iterations =  1.3

     negative rho (up, down):  3.490E-04 0.000E+00

     total cpu time spent up to now is    68288.6 secs

     total energy              =    -447.81790046 Ry
     Harris-Foulkes estimate   =    -447.81903451 Ry
     estimated scf accuracy    <       0.33085552 Ry

     iteration # 10     ecut=    30.00 Ry     beta= 0.30
     Davidson diagonalization with overlap
     c_bands:  1 eigenvalues not converged
     c_bands:  1 eigenvalues not converged
     c_bands:  1 eigenvalues not converged
     c_bands:  1 eigenvalues not converged
     c_bands:  1 eigenvalues not converged
     c_bands:  1 eigenvalues not converged
     c_bands:  1 eigenvalues not converged
     ethr =  6.63E-07,  avg # of iterations =  5.4

     negative rho (up, down):  3.589E-04 0.000E+00

     total cpu time spent up to now is    68973.4 secs

     total energy              =    -447.81823330 Ry
     Harris-Foulkes estimate   =    -447.81829834 Ry
     estimated scf accuracy    <       0.02341797 Ry

     iteration # 11     ecut=    30.00 Ry     beta= 0.30
     Davidson diagonalization with overlap
     c_bands:  1 eigenvalues not converged
     c_bands:  1 eigenvalues not converged
     ethr =  6.63E-07,  avg # of iterations =  1.8

     negative rho (up, down):  3.564E-04 0.000E+00

     total cpu time spent up to now is    69584.3 secs

     total energy              =    -447.81823132 Ry
     Harris-Foulkes estimate   =    -447.81824707 Ry
     estimated scf accuracy    <       0.00898406 Ry

     iteration # 12     ecut=    30.00 Ry     beta= 0.30
     Davidson diagonalization with overlap
     ethr =  6.63E-07,  avg # of iterations =  1.0

     negative rho (up, down):  3.617E-04 0.000E+00

     total cpu time spent up to now is    70190.7 secs

     total energy              =    -447.81820706 Ry
     Harris-Foulkes estimate   =    -447.81823414 Ry
     estimated scf accuracy    <       0.00529490 Ry

     iteration # 13     ecut=    30.00 Ry     beta= 0.30
     Davidson diagonalization with overlap
     c_bands:  1 eigenvalues not converged
     c_bands:  2 eigenvalues not converged
     ethr =  6.63E-07,  avg # of iterations =  3.2

     negative rho (up, down):  3.569E-04 0.000E+00

     total cpu time spent up to now is    70822.2 secs

     total energy              =    -447.81824916 Ry
     Harris-Foulkes estimate   =    -447.81825695 Ry
     estimated scf accuracy    <       0.00394150 Ry

     iteration # 14     ecut=    30.00 Ry     beta= 0.30
     Davidson diagonalization with overlap
     c_bands:  1 eigenvalues not converged
     ethr =  6.63E-07,  avg # of iterations =  2.4

     negative rho (up, down):  3.556E-04 0.000E+00

     total cpu time spent up to now is    71447.5 secs

     total energy              =    -447.81826284 Ry
     Harris-Foulkes estimate   =    -447.81825206 Ry
     estimated scf accuracy    <       0.00309399 Ry

     iteration # 15     ecut=    30.00 Ry     beta= 0.30
     Davidson diagonalization with overlap
     ethr =  6.63E-07,  avg # of iterations =  1.4

     negative rho (up, down):  2.980E-04 0.000E+00

     total cpu time spent up to now is    72049.5 secs

     total energy              =    -447.81831231 Ry
     Harris-Foulkes estimate   =    -447.81827017 Ry
     estimated scf accuracy    <       0.00878218 Ry

     iteration # 16     ecut=    30.00 Ry     beta= 0.30
     Davidson diagonalization with overlap
     c_bands:  1 eigenvalues not converged
     ethr =  6.63E-07,  avg # of iterations =  5.1

     negative rho (up, down):  2.868E-04 0.000E+00

     total cpu time spent up to now is    72723.0 secs

     total energy              =    -447.81829288 Ry
     Harris-Foulkes estimate   =    -447.81837296 Ry
     estimated scf accuracy    <       0.04687350 Ry

     iteration # 17     ecut=    30.00 Ry     beta= 0.30
     Davidson diagonalization with overlap
     ethr =  6.63E-07,  avg # of iterations =  1.0

     negative rho (up, down):  2.645E-04 0.000E+00

     total cpu time spent up to now is    73323.2 secs

     total energy              =    -447.81822235 Ry
     Harris-Foulkes estimate   =    -447.81830051 Ry
     estimated scf accuracy    <       0.03025756 Ry

     iteration # 18     ecut=    30.00 Ry     beta= 0.30
     Davidson diagonalization with overlap
     ethr =  6.63E-07,  avg # of iterations =  2.3

     negative rho (up, down):  2.489E-04 0.000E+00

     total cpu time spent up to now is    73942.9 secs

     total energy              =    -447.81820753 Ry
     Harris-Foulkes estimate   =    -447.81824947 Ry
     estimated scf accuracy    <       0.00704180 Ry

     iteration # 19     ecut=    30.00 Ry     beta= 0.30
     Davidson diagonalization with overlap
     c_bands:  1 eigenvalues not converged
     c_bands:  1 eigenvalues not converged
     ethr =  6.63E-07,  avg # of iterations =  2.6

[...]
     smearing contrib. (-TS)   =       0.00185632 Ry

     convergence has been achieved in  13 iterations

     negative rho (up, down):  8.347E-05 0.000E+00

     Forces acting on atoms (cartesian axes, Ry/au):

     atom    1 type  1   force =     0.00000000    0.00000906   -0.00000105
     atom    2 type  1   force =     0.00003848    0.00001339    0.00000537
     atom    3 type  1   force =     0.00000000   -0.00003544    0.00001983
     atom    4 type  1   force =    -0.00003848    0.00001339    0.00000537
     atom    5 type  1   force =    -0.00000360    0.00000061    0.00438373
     atom    6 type  1   force =     0.00000000   -0.00000256    0.00435345
     atom    7 type  1   force =     0.00000360    0.00000061    0.00438373
     atom    8 type  1   force =     0.00000000    0.00000157    0.00442249
     atom    9 type  1   force =     0.00001172   -0.00000657    0.00002655
     atom   10 type  1   force =     0.00000000    0.00001305    0.00002697
     atom   11 type  1   force =    -0.00001172   -0.00000657    0.00002655
     atom   12 type  1   force =     0.00000000   -0.00000043    0.00002757
     atom   13 type  1   force =     0.00000000   -0.00000474   -0.00004245
     atom   14 type  1   force =    -0.00000463    0.00000199   -0.00001168
     atom   15 type  1   force =     0.00000000    0.00000057    0.00002541
     atom   16 type  1   force =     0.00000463    0.00000199   -0.00001168
     atom   17 type  1   force =     0.00000505   -0.00000198    0.00002432
     atom   18 type  1   force =     0.00000000    0.00000530    0.00003889
     atom   19 type  1   force =    -0.00000505   -0.00000198    0.00002432
     atom   20 type  1   force =     0.00000000   -0.00000059    0.00000498
     atom   21 type  1   force =     0.00001477   -0.00000145   -0.00003267
     atom   22 type  1   force =     0.00000000    0.00001041    0.00000223
     atom   23 type  1   force =    -0.00001477   -0.00000145   -0.00003267
     atom   24 type  1   force =     0.00000000   -0.00000656    0.00001197
     atom   25 type  1   force =     0.00000000    0.00002246   -0.00045597
     atom   26 type  1   force =     0.00014079   -0.00000703   -0.00025570
     atom   27 type  1   force =     0.00000000   -0.00011165   -0.00028383
     atom   28 type  1   force =    -0.00014079   -0.00000703   -0.00025570
     atom   29 type  1   force =    -0.00004479   -0.00000697   -0.00009466
     atom   30 type  1   force =     0.00000000   -0.00001815    0.00004221
     atom   31 type  1   force =     0.00004479   -0.00000697   -0.00009466
     atom   32 type  1   force =     0.00000000    0.00003379   -0.00016110
     atom   33 type  1   force =    -0.00279506    0.00000406   -0.00536917
     atom   34 type  1   force =     0.00000000   -0.00181250   -0.00424285
     atom   35 type  1   force =     0.00279506    0.00000406   -0.00536917
     atom   36 type  1   force =     0.00000000    0.00176597   -0.00426246
     atom   37 type  2   force =     0.00000000    0.00013836    0.00312156

     Total force =     0.014251     Total SCF correction =     0.000658


     Computing stress (Cartesian axis) and pressure


     negative rho (up, down):  8.347E-05 0.000E+00
          total   stress  (Ry/bohr**3)                   (kbar)     P=  -23.75
  -0.00018955  -0.00000000   0.00000000        -27.88     -0.00      0.00
  -0.00000000  -0.00020922   0.00000005         -0.00    -30.78      0.01
   0.00000000   0.00000005  -0.00008568          0.00      0.01    -12.60


     number of scf cycles    =   9
     number of bfgs steps    =   8

     energy   old            =    -447.8196586778 Ry
     energy   new            =    -447.8204623281 Ry

     CASE: energy  _new < energy  _old

     new trust radius        =       0.0423679128 bohr
     new conv_thr            =       0.0000019329 Ry


ATOMIC_POSITIONS (crystal)
Al       0.333387290   0.166774090   0.055577326
Al       0.333465899   0.666651927   0.055578366
Al       0.833294331   0.166588170   0.055579401
Al       0.833186504   0.666651927   0.055578366
Al      -0.000005472  -0.000004710   0.000632082
Al       0.000000440   0.500000880   0.000628081
Al       0.500000762  -0.000004710   0.000632082
Al       0.500002535   0.500005069   0.000636343
Al       0.166738584   0.333367238   0.111117035
Al       0.166668370   0.833337245   0.111117033
Al       0.666628163   0.333367238   0.111117035
Al       0.666631751   0.833263978   0.111117054
Al       0.333316322   0.166632153   0.222216779
Al       0.333351224   0.666700576   0.222220850
Al       0.833315741   0.166630991   0.222225413
Al       0.833349828   0.666700576   0.222220850
Al      -0.000009635  -0.000022970   0.166670471
Al       0.000012823   0.500025646   0.166672674
Al       0.499986665  -0.000022970   0.166670471
Al       0.500011482   0.500022964   0.166668025
Al       0.166835369   0.333328679   0.277773323
Al       0.166725638   0.833451783   0.277778142
Al       0.666492819   0.333328679   0.277773323
Al       0.666611597   0.833223669   0.277778296
Al       0.333596545   0.167192598   0.388818222
Al       0.334805333   0.666862009   0.388839276
Al       0.832769918   0.165539346   0.388835943
Al       0.832057152   0.666862009   0.388839276
Al      -0.000393390   0.000117655   0.333317945
Al      -0.000208834   0.499582332   0.333335453
Al       0.500511045   0.000117655   0.333317945
Al       0.500092807   0.500185614   0.333310043
Al       0.132426052   0.333304423   0.443790697
Al       0.157788425   0.815577357   0.443879496
Al       0.700877880   0.333304423   0.443790697
Al       0.675555903   0.851112282   0.443878755
H        0.416787044   0.333577388   0.444511874



     Writing output data file Al_111_3_3.save/
     NEW-OLD atomic charge density approx. for the potential

     negative rho (up, down):  8.956E-05 0.000E+00

     total cpu time spent up to now is   160131.5 secs

     Self-consistent Calculation

     iteration #  1     ecut=    30.00 Ry     beta= 0.30
     Davidson diagonalization with overlap
     ethr =  1.00E-06,  avg # of iterations =  5.4

     negative rho (up, down):  7.505E-05 0.000E+00

     total cpu time spent up to now is   161309.3 secs

     total energy              =    -447.82165276 Ry
     Harris-Foulkes estimate   =    -447.82169614 Ry
     estimated scf accuracy    <       0.00562467 Ry

     iteration #  2     ecut=    30.00 Ry     beta= 0.30
     Davidson diagonalization with overlap
     ethr =  5.16E-06,  avg # of iterations =  1.0

     negative rho (up, down):  5.117E-05 0.000E+00

     total cpu time spent up to now is   161918.8 secs

     total energy              =    -447.82158233 Ry
     Harris-Foulkes estimate   =    -447.82166038 Ry
     estimated scf accuracy    <       0.00280822 Ry

     iteration #  3     ecut=    30.00 Ry     beta= 0.30
     Davidson diagonalization with overlap
     ethr =  2.58E-06,  avg # of iterations =  1.0

     negative rho (up, down):  4.176E-05 0.000E+00

     total cpu time spent up to now is   162527.6 secs

     total energy              =    -447.82162145 Ry
     Harris-Foulkes estimate   =    -447.82162144 Ry
     estimated scf accuracy    <       0.00001162 Ry

     iteration #  4     ecut=    30.00 Ry     beta= 0.30
     Davidson diagonalization with overlap
     c_bands:  1 eigenvalues not converged
     ethr =  1.07E-08,  avg # of iterations =  6.3

     negative rho (up, down):  4.115E-05 0.000E+00

     total cpu time spent up to now is   163420.2 secs

     total energy              =    -447.82163958 Ry
     Harris-Foulkes estimate   =    -447.82163793 Ry
     estimated scf accuracy    <       0.00091053 Ry

     iteration #  5     ecut=    30.00 Ry     beta= 0.30
     Davidson diagonalization with overlap
     ethr =  1.07E-08,  avg # of iterations =  1.1

     negative rho (up, down):  2.963E-05 0.000E+00

     total cpu time spent up to now is   164037.0 secs

     total energy              =    -447.82162980 Ry
     Harris-Foulkes estimate   =    -447.82163974 Ry
     estimated scf accuracy    <       0.00111654 Ry

     iteration #  6     ecut=    30.00 Ry     beta= 0.30
     Davidson diagonalization with overlap
     ethr =  1.07E-08,  avg # of iterations =  3.4

     negative rho (up, down):  2.761E-05 0.000E+00

     total cpu time spent up to now is   164718.7 secs

     total energy              =    -447.82163289 Ry
     Harris-Foulkes estimate   =    -447.82163364 Ry
     estimated scf accuracy    <       0.00004069 Ry

     iteration #  7     ecut=    30.00 Ry     beta= 0.30
     Davidson diagonalization with overlap
     ethr =  1.07E-08,  avg # of iterations =  1.2

     negative rho (up, down):  8.395E-05 0.000E+00

     total cpu time spent up to now is   165303.9 secs

     End of self-consistent calculation

     Number of k-points >= 100: set verbosity='high' to print the bands.

     the Fermi energy is    -0.9859 ev

!    total energy              =    -447.82163211 Ry
     Harris-Foulkes estimate   =    -447.82163322 Ry
     estimated scf accuracy    <       0.00000131 Ry

     The total energy is the sum of the following terms:

     one-electron contribution =   -9798.47441448 Ry
     hartree contribution      =    4917.19003615 Ry
     xc contribution           =    -356.02526001 Ry
     ewald contribution        =    4789.48619866 Ry
     smearing contrib. (-TS)   =       0.00180756 Ry

     convergence has been achieved in   7 iterations

     negative rho (up, down):  8.395E-05 0.000E+00

     Forces acting on atoms (cartesian axes, Ry/au):

     atom    1 type  1   force =     0.00000000   -0.00003155   -0.00010583
     atom    2 type  1   force =    -0.00001811    0.00002151   -0.00009355
     atom    3 type  1   force =     0.00000000   -0.00001067   -0.00007212
     atom    4 type  1   force =     0.00001811    0.00002151   -0.00009355
     atom    5 type  1   force =     0.00000088    0.00000317    0.00447476
     atom    6 type  1   force =     0.00000000   -0.00000229    0.00443036
     atom    7 type  1   force =    -0.00000088    0.00000317    0.00447476
     atom    8 type  1   force =     0.00000000   -0.00000336    0.00452925
     atom    9 type  1   force =    -0.00001223   -0.00001373    0.00001430
     atom   10 type  1   force =     0.00000000    0.00000647    0.00001604
     atom   11 type  1   force =     0.00001223   -0.00001373    0.00001430
     atom   12 type  1   force =     0.00000000    0.00002058    0.00001472
     atom   13 type  1   force =     0.00000000    0.00000599   -0.00004127
     atom   14 type  1   force =    -0.00000873   -0.00001088   -0.00000988
     atom   15 type  1   force =     0.00000000    0.00001598    0.00003186
     atom   16 type  1   force =     0.00000873   -0.00001088   -0.00000988
     atom   17 type  1   force =     0.00000775    0.00000385    0.00002398
     atom   18 type  1   force =     0.00000000    0.00000118    0.00004472
     atom   19 type  1   force =    -0.00000775    0.00000385    0.00002398
     atom   20 type  1   force =     0.00000000   -0.00000771   -0.00000421
     atom   21 type  1   force =    -0.00002941    0.00000179   -0.00003210
     atom   22 type  1   force =     0.00000000   -0.00001791    0.00000578
     atom   23 type  1   force =     0.00002941    0.00000179   -0.00003210
     atom   24 type  1   force =     0.00000000    0.00001606    0.00001909
     atom   25 type  1   force =     0.00000000   -0.00011765   -0.00039904
     atom   26 type  1   force =    -0.00024771   -0.00008402   -0.00019463
     atom   27 type  1   force =     0.00000000    0.00016745   -0.00022881
     atom   28 type  1   force =     0.00024771   -0.00008402   -0.00019463
     atom   29 type  1   force =     0.00011836   -0.00002704   -0.00008297
     atom   30 type  1   force =     0.00000000    0.00009634    0.00005911
     atom   31 type  1   force =    -0.00011836   -0.00002704   -0.00008297
     atom   32 type  1   force =     0.00000000   -0.00003985   -0.00015334
     atom   33 type  1   force =    -0.00436186    0.00000885   -0.00611350
     atom   34 type  1   force =     0.00000000    0.00045622   -0.00454432
     atom   35 type  1   force =     0.00436186    0.00000885   -0.00611350
     atom   36 type  1   force =     0.00000000   -0.00052713   -0.00454444
     atom   37 type  2   force =     0.00000000    0.00016485    0.00496960

     Total force =     0.016128     Total SCF correction =     0.001248


     Computing stress (Cartesian axis) and pressure


     negative rho (up, down):  8.395E-05 0.000E+00
          total   stress  (Ry/bohr**3)                   (kbar)     P=  -23.72
  -0.00018971  -0.00000000   0.00000000        -27.91     -0.00      0.00
  -0.00000000  -0.00020805   0.00000006         -0.00    -30.61      0.01
   0.00000000   0.00000006  -0.00008600          0.00      0.01    -12.65


     number of scf cycles    =  10
     number of bfgs steps    =   9

     energy   old            =    -447.8204623281 Ry
     energy   new            =    -447.8216321142 Ry

     CASE: energy  _new < energy  _old

     new trust radius        =       0.0635518692 bohr
     new conv_thr            =       0.0000022009 Ry


ATOMIC_POSITIONS (crystal)
Al       0.333407931   0.166815372   0.055584774
Al       0.333542222   0.666659166   0.055586402
Al       0.833266630   0.166532769   0.055588117
Al       0.833117420   0.666659166   0.055586402
Al      -0.000013716  -0.000005109   0.000927432
Al      -0.000002369   0.499995262   0.000921200
Al       0.500008607  -0.000005109   0.000927432
Al       0.500005095   0.500010190   0.000934180
Al       0.166760361   0.333375631   0.111119463
Al       0.166670184   0.833340874   0.111119452
Al       0.666614779   0.333375631   0.111119463
Al       0.666621943   0.833244361   0.111119533
Al       0.333307934   0.166615376   0.222213955
Al       0.333357997   0.666716271   0.222220206
Al       0.833308030   0.166615568   0.222227231
Al       0.833358750   0.666716271   0.222220206
Al      -0.000010588  -0.000031986   0.166672218
Al       0.000018865   0.500037730   0.166675648
Al       0.499978602  -0.000031986   0.166672218
Al       0.500015111   0.500030223   0.166668394
Al       0.166902936   0.333323744   0.277771130
Al       0.166751312   0.833503130   0.277778381
Al       0.666420317   0.333323744   0.277771130
Al       0.666590686   0.833181847   0.277778692
Al       0.333704404   0.167408316   0.388782383
Al       0.335460516   0.666962861   0.388816167
Al       0.832510531   0.165020570   0.388810799
Al       0.831502821   0.666962861   0.388816167
Al      -0.000588767   0.000154345   0.333310664
Al      -0.000298038   0.499403923   0.333337631
Al       0.500743112   0.000154345   0.333310664
Al       0.500146137   0.500292273   0.333298395
Al       0.133405125   0.333294944   0.443473656
Al       0.155275523   0.810551552   0.443607395
Al       0.699889327   0.333294944   0.443473656
Al       0.678066203   0.856132882   0.443606682
H        0.416848979   0.333701259   0.444596924



     Writing output data file Al_111_3_3.save/
     NEW-OLD atomic charge density approx. for the potential

     negative rho (up, down):  9.774E-05 0.000E+00

     total cpu time spent up to now is   165855.1 secs

     Self-consistent Calculation

     iteration #  1     ecut=    30.00 Ry     beta= 0.30
     Davidson diagonalization with overlap
     c_bands:  1 eigenvalues not converged
     c_bands:  1 eigenvalues not converged
     c_bands:  1 eigenvalues not converged
     c_bands:  1 eigenvalues not converged
     c_bands:  1 eigenvalues not converged
     c_bands:  1 eigenvalues not converged
     c_bands:  1 eigenvalues not converged
     c_bands:  1 eigenvalues not converged
     ethr =  1.00E-06,  avg # of iterations =  8.1

     negative rho (up, down):  8.541E-05 0.000E+00

     total cpu time spent up to now is   167190.2 secs

     total energy              =    -447.82339027 Ry
     Harris-Foulkes estimate   =    -447.82363686 Ry
     estimated scf accuracy    <       0.09749854 Ry

     iteration #  2     ecut=    30.00 Ry     beta= 0.30
     Davidson diagonalization with overlap
     ethr =  8.94E-05,  avg # of iterations =  1.0

     negative rho (up, down):  8.158E-05 0.000E+00

     total cpu time spent up to now is   167794.8 secs

     total energy              =    -447.82303389 Ry
     Harris-Foulkes estimate   =    -447.82342702 Ry
     estimated scf accuracy    <       0.04619475 Ry

     iteration #  3     ecut=    30.00 Ry     beta= 0.30
     Davidson diagonalization with overlap
     ethr =  4.24E-05,  avg # of iterations =  1.0

     negative rho (up, down):  6.733E-05 0.000E+00

     total cpu time spent up to now is   168426.9 secs

     total energy              =    -447.82322781 Ry
     Harris-Foulkes estimate   =    -447.82322786 Ry
     estimated scf accuracy    <       0.00005847 Ry

     iteration #  4     ecut=    30.00 Ry     beta= 0.30
     Davidson diagonalization with overlap
     c_bands:  1 eigenvalues not converged
     c_bands:  1 eigenvalues not converged
     c_bands:  1 eigenvalues not converged
     c_bands:  1 eigenvalues not converged
     c_bands:  1 eigenvalues not converged
     c_bands:  1 eigenvalues not converged
     c_bands:  1 eigenvalues not converged
     ethr =  5.36E-08,  avg # of iterations =  6.5

     negative rho (up, down):  6.738E-05 0.000E+00

     total cpu time spent up to now is   169247.7 secs

     total energy              =    -447.82340125 Ry
     Harris-Foulkes estimate   =    -447.82337647 Ry
     estimated scf accuracy    <       0.01833308 Ry

     iteration #  5     ecut=    30.00 Ry     beta= 0.30
     Davidson diagonalization with overlap
     c_bands:  1 eigenvalues not converged
     ethr =  5.36E-08,  avg # of iterations =  3.2

     negative rho (up, down):  6.080E-05 0.000E+00

     total cpu time spent up to now is   169879.8 secs

     total energy              =    -447.82336378 Ry
     Harris-Foulkes estimate   =    -447.82340483 Ry
     estimated scf accuracy    <       0.02870245 Ry

     iteration #  6     ecut=    30.00 Ry     beta= 0.30
     Davidson diagonalization with overlap
     c_bands:  1 eigenvalues not converged
     c_bands:  1 eigenvalues not converged
     c_bands:  1 eigenvalues not converged
     ethr =  5.36E-08,  avg # of iterations =  3.3

     negative rho (up, down):  5.460E-05 0.000E+00

     total cpu time spent up to now is   170561.9 secs

     total energy              =    -447.82331493 Ry
     Harris-Foulkes estimate   =    -447.82336895 Ry
     estimated scf accuracy    <       0.01583955 Ry

     iteration #  7     ecut=    30.00 Ry     beta= 0.30
     Davidson diagonalization with overlap
     ethr =  5.36E-08,  avg # of iterations =  4.1

     negative rho (up, down):  5.289E-05 0.000E+00

     total cpu time spent up to now is   171241.8 secs

     total energy              =    -447.82333008 Ry
     Harris-Foulkes estimate   =    -447.82333384 Ry
     estimated scf accuracy    <       0.00145537 Ry

     iteration #  8     ecut=    30.00 Ry     beta= 0.30
     Davidson diagonalization with overlap
     ethr =  5.36E-08,  avg # of iterations =  1.0

     negative rho (up, down):  4.975E-05 0.000E+00

     total cpu time spent up to now is   171865.4 secs

     total energy              =    -447.82332768 Ry
     Harris-Foulkes estimate   =    -447.82333072 Ry
     estimated scf accuracy    <       0.00065742 Ry

     iteration #  9     ecut=    30.00 Ry     beta= 0.30
     Davidson diagonalization with overlap
     ethr =  5.36E-08,  avg # of iterations =  2.7

     negative rho (up, down):  4.880E-05 0.000E+00

     total cpu time spent up to now is   172487.0 secs

     total energy              =    -447.82332938 Ry
     Harris-Foulkes estimate   =    -447.82332974 Ry
     estimated scf accuracy    <       0.00000865 Ry

     iteration # 10     ecut=    30.00 Ry     beta= 0.30
     Davidson diagonalization with overlap
