
     Program PWSCF v.6.4.1 starts on  5Jun2020 at  6:54:59 

     This program is part of the open-source Quantum ESPRESSO suite
     for quantum simulation of materials; please cite
         "P. Giannozzi et al., J. Phys.:Condens. Matter 21 395502 (2009);
         "P. Giannozzi et al., J. Phys.:Condens. Matter 29 465901 (2017);
          URL http://www.quantum-espresso.org", 
     in publications or presentations arising from this work. More details at
     http://www.quantum-espresso.org/quote

     Parallel version (MPI), running on     1 processors

     MPI processes distributed on     1 nodes
     Reading input from Al_111_H3_hole_B_site_1.pw.in

     Current dimensions of program PWSCF are:
     Max number of different atomic species (ntypx) = 10
     Max number of k-points (npk) =  40000
     Max angular momentum in pseudopotentials (lmaxx) =  3
               file H.pbe-rrkjus.UPF: wavefunction(s)  1S renormalized

     Subspace diagonalization in iterative solution of the eigenvalue problem:
     a serial algorithm will be used


     G-vector sticks info
     --------------------
     sticks:   dense  smooth     PW     G-vecs:    dense   smooth      PW
     Sum        1189     955    271               490481   351617   53557



     bravais-lattice index     =            4
     lattice parameter (alat)  =      10.7520  a.u.
     unit-cell volume          =   15820.6847 (a.u.)^3
     number of atoms/cell      =           37
     number of atomic types    =            2
     number of electrons       =       109.00
     number of Kohn-Sham states=           66
     kinetic-energy cutoff     =      30.0000  Ry
     charge density cutoff     =     150.0000  Ry
     convergence threshold     =      3.6E-05
     mixing beta               =       0.3000
     number of iterations used =            8  local-TF  mixing
     Exchange-correlation      =  SLA  PW   PBE  PBE ( 1  4  3  4 0 0)
     nstep                     =           50


     celldm(1)=  10.752000  celldm(2)=   0.000000  celldm(3)=  14.696938
     celldm(4)=   0.000000  celldm(5)=   0.000000  celldm(6)=   0.000000

     crystal axes: (cart. coord. in units of alat)
               a(1) = (   1.000000   0.000000   0.000000 )  
               a(2) = (  -0.500000   0.866025   0.000000 )  
               a(3) = (   0.000000   0.000000  14.696938 )  

     reciprocal axes: (cart. coord. in units 2 pi/alat)
               b(1) = (  1.000000  0.577350 -0.000000 )  
               b(2) = (  0.000000  1.154701  0.000000 )  
               b(3) = (  0.000000 -0.000000  0.068041 )  


     PseudoPot. # 1 for Al read from file:
     ./Al.pbe-n-van.UPF
     MD5 check sum: b11ded24487aef5bc42d5c7a2e22a7b6
     Pseudo is Ultrasoft + core correction, Zval =  3.0
     Generated by new atomic code, or converted to UPF format
     Using radial grid of  893 points,  2 beta functions with: 
                l(1) =   0
                l(2) =   1
     Q(r) pseudized with  8 coefficients,  rinner =    0.900   0.900   0.900


     PseudoPot. # 2 for H  read from file:
     ./H.pbe-rrkjus.UPF
     MD5 check sum: 0433647300470310da31d564c103eed6
     Pseudo is Ultrasoft, Zval =  1.0
     Generated by new atomic code, or converted to UPF format
     Using radial grid of 1061 points,  2 beta functions with: 
                l(1) =   0
                l(2) =   0
     Q(r) pseudized with 0 coefficients 


     atomic species   valence    mass     pseudopotential
        Al             3.00    26.98000     Al( 1.00)
        H              1.00     1.00790     H ( 1.00)

      6 Sym. Ops. (no inversion) found ( 4 have fractional translation)



   Cartesian axes

     site n.     atom                  positions (alat units)
         1           Al  tau(   1) = (   0.2500002   0.1443374   0.8164957  )
         2           Al  tau(   2) = (   0.0000002   0.5773501   0.8164957  )
         3           Al  tau(   3) = (   0.7500002   0.1443374   0.8164957  )
         4           Al  tau(   4) = (   0.5000002   0.5773501   0.8164957  )
         5           Al  tau(   5) = (   0.0000000   0.0000000   0.0000000  )
         6           Al  tau(   6) = (  -0.2500000   0.4330127   0.0000000  )
         7           Al  tau(   7) = (   0.5000000   0.0000000   0.0000000  )
         8           Al  tau(   8) = (   0.2500000   0.4330127   0.0000000  )
         9           Al  tau(   9) = (  -0.0000003   0.2886753   1.6329939  )
        10           Al  tau(  10) = (  -0.2500003   0.7216880   1.6329939  )
        11           Al  tau(  11) = (   0.4999998   0.2886753   1.6329939  )
        12           Al  tau(  12) = (   0.2499998   0.7216880   1.6329939  )
        13           Al  tau(  13) = (   0.2500002   0.1443374   3.2659855  )
        14           Al  tau(  14) = (   0.0000002   0.5773501   3.2659855  )
        15           Al  tau(  15) = (   0.7500002   0.1443374   3.2659855  )
        16           Al  tau(  16) = (   0.5000002   0.5773501   3.2659855  )
        17           Al  tau(  17) = (   0.0000000   0.0000000   2.4494897  )
        18           Al  tau(  18) = (  -0.2500000   0.4330127   2.4494897  )
        19           Al  tau(  19) = (   0.5000000   0.0000000   2.4494897  )
        20           Al  tau(  20) = (   0.2500000   0.4330127   2.4494897  )
        21           Al  tau(  21) = (  -0.0000003   0.2886753   4.0824837  )
        22           Al  tau(  22) = (  -0.2500003   0.7216880   4.0824837  )
        23           Al  tau(  23) = (   0.4999998   0.2886753   4.0824837  )
        24           Al  tau(  24) = (   0.2499998   0.7216880   4.0824837  )
        25           Al  tau(  25) = (   0.2500002   0.1443374   5.7154752  )
        26           Al  tau(  26) = (   0.0000002   0.5773501   5.7154752  )
        27           Al  tau(  27) = (   0.7500002   0.1443374   5.7154752  )
        28           Al  tau(  28) = (   0.5000002   0.5773501   5.7154752  )
        29           Al  tau(  29) = (   0.0000000   0.0000000   4.8989795  )
        30           Al  tau(  30) = (  -0.2500000   0.4330127   4.8989795  )
        31           Al  tau(  31) = (   0.5000000   0.0000000   4.8989795  )
        32           Al  tau(  32) = (   0.2500000   0.4330127   4.8989795  )
        33           Al  tau(  33) = (  -0.0000003   0.2886753   6.5319734  )
        34           Al  tau(  34) = (  -0.2500003   0.7216880   6.5319734  )
        35           Al  tau(  35) = (   0.4999998   0.2886753   6.5319734  )
        36           Al  tau(  36) = (   0.2499998   0.7216880   6.5319734  )
        37           H   tau(  37) = (   0.2500002   0.1443374   6.1237241  )

     number of k points=    44  Marzari-Vanderbilt smearing, width (Ry)=  0.0250
                       cart. coord. in units 2pi/alat
        k(    1) = (   0.0000000   0.0000000   0.0000000), wk =   0.0050000
        k(    2) = (   0.0000000   0.0577350   0.0000000), wk =   0.0300000
        k(    3) = (   0.0000000   0.1154701   0.0000000), wk =   0.0300000
        k(    4) = (   0.0000000   0.1732051   0.0000000), wk =   0.0300000
        k(    5) = (   0.0000000   0.2309401   0.0000000), wk =   0.0300000
        k(    6) = (   0.0000000   0.2886751   0.0000000), wk =   0.0300000
        k(    7) = (   0.0000000   0.3464102   0.0000000), wk =   0.0300000
        k(    8) = (   0.0000000   0.4041452   0.0000000), wk =   0.0300000
        k(    9) = (   0.0000000   0.4618802   0.0000000), wk =   0.0300000
        k(   10) = (   0.0000000   0.5196152   0.0000000), wk =   0.0300000
        k(   11) = (   0.0000000  -0.5773503   0.0000000), wk =   0.0150000
        k(   12) = (   0.0500000   0.0866025   0.0000000), wk =   0.0300000
        k(   13) = (   0.0500000   0.1443376   0.0000000), wk =   0.0600000
        k(   14) = (   0.0500000   0.2020726   0.0000000), wk =   0.0600000
        k(   15) = (   0.0500000   0.2598076   0.0000000), wk =   0.0600000
        k(   16) = (   0.0500000   0.3175426   0.0000000), wk =   0.0600000
        k(   17) = (   0.0500000   0.3752777   0.0000000), wk =   0.0600000
        k(   18) = (   0.0500000   0.4330127   0.0000000), wk =   0.0600000
        k(   19) = (   0.0500000   0.4907477   0.0000000), wk =   0.0600000
        k(   20) = (   0.0500000   0.5484828   0.0000000), wk =   0.0600000
        k(   21) = (   0.1000000   0.1732051   0.0000000), wk =   0.0300000
        k(   22) = (   0.1000000   0.2309401   0.0000000), wk =   0.0600000
        k(   23) = (   0.1000000   0.2886751   0.0000000), wk =   0.0600000
        k(   24) = (   0.1000000   0.3464102   0.0000000), wk =   0.0600000
        k(   25) = (   0.1000000   0.4041452   0.0000000), wk =   0.0600000
        k(   26) = (   0.1000000   0.4618802   0.0000000), wk =   0.0600000
        k(   27) = (   0.1000000   0.5196152   0.0000000), wk =   0.0600000
        k(   28) = (   0.1000000   0.5773503   0.0000000), wk =   0.0300000
        k(   29) = (   0.1500000   0.2598076   0.0000000), wk =   0.0300000
        k(   30) = (   0.1500000   0.3175426   0.0000000), wk =   0.0600000
        k(   31) = (   0.1500000   0.3752777   0.0000000), wk =   0.0600000
        k(   32) = (   0.1500000   0.4330127   0.0000000), wk =   0.0600000
        k(   33) = (   0.1500000   0.4907477   0.0000000), wk =   0.0600000
        k(   34) = (   0.1500000   0.5484828   0.0000000), wk =   0.0600000
        k(   35) = (   0.2000000   0.3464102   0.0000000), wk =   0.0300000
        k(   36) = (   0.2000000   0.4041452   0.0000000), wk =   0.0600000
        k(   37) = (   0.2000000   0.4618802   0.0000000), wk =   0.0600000
        k(   38) = (   0.2000000   0.5196152   0.0000000), wk =   0.0600000
        k(   39) = (   0.2000000   0.5773503   0.0000000), wk =   0.0300000
        k(   40) = (   0.2500000   0.4330127   0.0000000), wk =   0.0300000
        k(   41) = (   0.2500000   0.4907477   0.0000000), wk =   0.0600000
        k(   42) = (   0.2500000   0.5484828   0.0000000), wk =   0.0600000
        k(   43) = (   0.3000000   0.5196152   0.0000000), wk =   0.0300000
        k(   44) = (   0.3000000   0.5773503   0.0000000), wk =   0.0300000

     Dense  grid:   490481 G-vectors     FFT dimensions: (  48,  48, 625)

     Smooth grid:   351617 G-vectors     FFT dimensions: (  40,  40, 576)

     Estimated max dynamical RAM per process >       3.27 GB

     Initial potential from superposition of free atoms

     starting charge  108.81504, renormalised to  109.00000

     negative rho (up, down):  2.797E-04 0.000E+00
     Starting wfcs are  145 randomized atomic wfcs

     total cpu time spent up to now is      724.0 secs

     Self-consistent Calculation

     iteration #  1     ecut=    30.00 Ry     beta= 0.30
     Davidson diagonalization with overlap
     ethr =  1.00E-02,  avg # of iterations =  2.9

     negative rho (up, down):  5.121E-03 0.000E+00

     total cpu time spent up to now is     1934.6 secs

     total energy              =    -449.86519262 Ry
     Harris-Foulkes estimate   =    -452.80259785 Ry
     estimated scf accuracy    <    1337.00407674 Ry

     iteration #  2     ecut=    30.00 Ry     beta= 0.30
     Davidson diagonalization with overlap
     ethr =  1.00E-02,  avg # of iterations =  1.0

     negative rho (up, down):  7.520E-02 0.000E+00

     total cpu time spent up to now is     2689.4 secs

     total energy              =    -444.49963368 Ry
     Harris-Foulkes estimate   =    -450.27492371 Ry
     estimated scf accuracy    <     731.74094409 Ry

     iteration #  3     ecut=    30.00 Ry     beta= 0.30
     Davidson diagonalization with overlap
     ethr =  1.00E-02,  avg # of iterations =  5.3

     negative rho (up, down):  5.550E-02 0.000E+00

     total cpu time spent up to now is     3600.9 secs

     total energy              =    -448.20666871 Ry
     Harris-Foulkes estimate   =    -447.34933599 Ry
     estimated scf accuracy    <      65.45348776 Ry

     iteration #  4     ecut=    30.00 Ry     beta= 0.30
     Davidson diagonalization with overlap
     ethr =  1.00E-02,  avg # of iterations =  1.5

     negative rho (up, down):  1.173E-01 0.000E+00

     total cpu time spent up to now is     4349.6 secs

     total energy              =    -444.51423527 Ry
     Harris-Foulkes estimate   =    -448.48465524 Ry
     estimated scf accuracy    <     220.63882060 Ry

     iteration #  5     ecut=    30.00 Ry     beta= 0.30
     Davidson diagonalization with overlap
     ethr =  1.00E-02,  avg # of iterations = 10.5

     negative rho (up, down):  6.670E-02 0.000E+00

     total cpu time spent up to now is     5624.1 secs

     total energy              =    -447.20418770 Ry
     Harris-Foulkes estimate   =    -450.13476484 Ry
     estimated scf accuracy    <     435.17352872 Ry

     iteration #  6     ecut=    30.00 Ry     beta= 0.30
     Davidson diagonalization with overlap
     ethr =  1.00E-02,  avg # of iterations =  1.5

     negative rho (up, down):  6.139E-02 0.000E+00

     total cpu time spent up to now is     6417.6 secs

     total energy              =    -447.82064839 Ry
     Harris-Foulkes estimate   =    -447.99212792 Ry
     estimated scf accuracy    <      60.96565143 Ry

     iteration #  7     ecut=    30.00 Ry     beta= 0.30
     Davidson diagonalization with overlap
     ethr =  1.00E-02,  avg # of iterations =  1.0

     negative rho (up, down):  8.493E-02 0.000E+00

     total cpu time spent up to now is     7162.9 secs

     total energy              =    -448.27248611 Ry
     Harris-Foulkes estimate   =    -447.85645973 Ry
     estimated scf accuracy    <      26.08098225 Ry

     iteration #  8     ecut=    30.00 Ry     beta= 0.30
     Davidson diagonalization with overlap
     ethr =  1.00E-02,  avg # of iterations =  1.2

     negative rho (up, down):  9.129E-02 0.000E+00

     total cpu time spent up to now is     7911.5 secs

     total energy              =    -448.97265353 Ry
     Harris-Foulkes estimate   =    -448.66903215 Ry
     estimated scf accuracy    <     221.41416926 Ry

     iteration #  9     ecut=    30.00 Ry     beta= 0.30
     Davidson diagonalization with overlap
     ethr =  1.00E-02,  avg # of iterations =  1.0

     negative rho (up, down):  6.419E-02 0.000E+00

     total cpu time spent up to now is     8659.1 secs

     total energy              =    -446.29944123 Ry
     Harris-Foulkes estimate   =    -449.00312681 Ry
     estimated scf accuracy    <     285.18054591 Ry

     iteration # 10     ecut=    30.00 Ry     beta= 0.30
     Davidson diagonalization with overlap
     ethr =  1.00E-02,  avg # of iterations =  1.8

     negative rho (up, down):  5.517E-02 0.000E+00

     total cpu time spent up to now is     9413.4 secs

     total energy              =    -447.93659440 Ry
     Harris-Foulkes estimate   =    -447.78673371 Ry
     estimated scf accuracy    <       7.57027977 Ry

     iteration # 11     ecut=    30.00 Ry     beta= 0.30
     Davidson diagonalization with overlap
     ethr =  6.95E-03,  avg # of iterations =  3.2

     negative rho (up, down):  5.906E-02 0.000E+00

     total cpu time spent up to now is    10201.9 secs

     total energy              =    -447.68581247 Ry
     Harris-Foulkes estimate   =    -448.25280096 Ry
     estimated scf accuracy    <     109.39587344 Ry

     iteration # 12     ecut=    30.00 Ry     beta= 0.30
     Davidson diagonalization with overlap
     ethr =  6.95E-03,  avg # of iterations =  1.2

     negative rho (up, down):  6.548E-02 0.000E+00

     total cpu time spent up to now is    10951.4 secs

     total energy              =    -447.77422466 Ry
     Harris-Foulkes estimate   =    -447.86018496 Ry
     estimated scf accuracy    <      18.42550386 Ry

     iteration # 13     ecut=    30.00 Ry     beta= 0.30
     Davidson diagonalization with overlap
     ethr =  6.95E-03,  avg # of iterations =  1.0

     negative rho (up, down):  5.956E-02 0.000E+00

     total cpu time spent up to now is    11697.8 secs

     total energy              =    -447.79613688 Ry
     Harris-Foulkes estimate   =    -447.80624520 Ry
     estimated scf accuracy    <       2.60064018 Ry

     iteration # 14     ecut=    30.00 Ry     beta= 0.30
     Davidson diagonalization with overlap
     ethr =  2.39E-03,  avg # of iterations =  2.2

     negative rho (up, down):  5.495E-02 0.000E+00

     total cpu time spent up to now is    12464.7 secs

     total energy              =    -447.84526627 Ry
     Harris-Foulkes estimate   =    -447.83271597 Ry
     estimated scf accuracy    <       4.16144898 Ry

     iteration # 15     ecut=    30.00 Ry     beta= 0.30
     Davidson diagonalization with overlap
     ethr =  2.39E-03,  avg # of iterations =  1.4

     negative rho (up, down):  5.607E-02 0.000E+00

     total cpu time spent up to now is    13234.4 secs

     total energy              =    -447.84965537 Ry
     Harris-Foulkes estimate   =    -447.85708158 Ry
     estimated scf accuracy    <      11.68360904 Ry

     iteration # 16     ecut=    30.00 Ry     beta= 0.30
     Davidson diagonalization with overlap
     ethr =  2.39E-03,  avg # of iterations =  1.0

     negative rho (up, down):  5.726E-02 0.000E+00

     total cpu time spent up to now is    13982.5 secs

     total energy              =    -447.82694612 Ry
     Harris-Foulkes estimate   =    -447.85159223 Ry
     estimated scf accuracy    <      10.91644418 Ry

     iteration # 17     ecut=    30.00 Ry     beta= 0.30
     Davidson diagonalization with overlap
     ethr =  2.39E-03,  avg # of iterations =  1.3

     negative rho (up, down):  5.557E-02 0.000E+00

     total cpu time spent up to now is    14735.1 secs

     total energy              =    -447.80430243 Ry
     Harris-Foulkes estimate   =    -447.84356541 Ry
     estimated scf accuracy    <       8.34997446 Ry

     iteration # 18     ecut=    30.00 Ry     beta= 0.30
     Davidson diagonalization with overlap
     ethr =  2.39E-03,  avg # of iterations =  1.2

     negative rho (up, down):  6.086E-02 0.000E+00

     total cpu time spent up to now is    15494.5 secs

     total energy              =    -447.82857283 Ry
     Harris-Foulkes estimate   =    -447.82688526 Ry
     estimated scf accuracy    <       1.55290349 Ry

     iteration # 19     ecut=    30.00 Ry     beta= 0.30
     Davidson diagonalization with overlap
     ethr =  1.42E-03,  avg # of iterations =  1.4

     negative rho (up, down):  6.022E-02 0.000E+00

     total cpu time spent up to now is    16277.6 secs

     total energy              =    -447.86769596 Ry
     Harris-Foulkes estimate   =    -447.86931533 Ry
     estimated scf accuracy    <      10.10153730 Ry

     iteration # 20     ecut=    30.00 Ry     beta= 0.30
     Davidson diagonalization with overlap
     ethr =  1.42E-03,  avg # of iterations =  1.0

     negative rho (up, down):  6.078E-02 0.000E+00

     total cpu time spent up to now is    17022.5 secs

     total energy              =    -447.87319025 Ry
     Harris-Foulkes estimate   =    -447.86843477 Ry
     estimated scf accuracy    <       9.82388694 Ry

     iteration # 21     ecut=    30.00 Ry     beta= 0.30
     Davidson diagonalization with overlap
     ethr =  1.42E-03,  avg # of iterations =  1.0

     negative rho (up, down):  6.017E-02 0.000E+00

     total cpu time spent up to now is    17769.5 secs

     total energy              =    -447.86776902 Ry
     Harris-Foulkes estimate   =    -447.87382716 Ry
     estimated scf accuracy    <      10.59282193 Ry

     iteration # 22     ecut=    30.00 Ry     beta= 0.30
     Davidson diagonalization with overlap
     ethr =  1.42E-03,  avg # of iterations =  1.0

     negative rho (up, down):  5.994E-02 0.000E+00

     total cpu time spent up to now is    18514.7 secs

     total energy              =    -447.80833492 Ry
     Harris-Foulkes estimate   =    -447.86819151 Ry
     estimated scf accuracy    <       9.57520055 Ry

     iteration # 23     ecut=    30.00 Ry     beta= 0.30
     Davidson diagonalization with overlap
     ethr =  1.42E-03,  avg # of iterations =  1.1

     negative rho (up, down):  5.237E-02 0.000E+00

     total cpu time spent up to now is    19261.3 secs

     total energy              =    -447.82436624 Ry
     Harris-Foulkes estimate   =    -447.82863584 Ry
     estimated scf accuracy    <       0.98476819 Ry

     iteration # 24     ecut=    30.00 Ry     beta= 0.30
     Davidson diagonalization with overlap
     ethr =  9.03E-04,  avg # of iterations =  1.0

     negative rho (up, down):  4.545E-02 0.000E+00

     total cpu time spent up to now is    20002.6 secs

     total energy              =    -447.81610538 Ry
     Harris-Foulkes estimate   =    -447.82559301 Ry
     estimated scf accuracy    <       0.59991520 Ry

     iteration # 25     ecut=    30.00 Ry     beta= 0.30
     Davidson diagonalization with overlap
     ethr =  5.50E-04,  avg # of iterations =  1.6

     negative rho (up, down):  3.786E-02 0.000E+00

     total cpu time spent up to now is    20766.3 secs

     total energy              =    -447.81923073 Ry
     Harris-Foulkes estimate   =    -447.82291348 Ry
     estimated scf accuracy    <       0.03278811 Ry

     iteration # 26     ecut=    30.00 Ry     beta= 0.30
     Davidson diagonalization with overlap
     c_bands:  5 eigenvalues not converged
     c_bands:  3 eigenvalues not converged
     ethr =  3.01E-05,  avg # of iterations = 10.8

     negative rho (up, down):  3.835E-02 0.000E+00

     total cpu time spent up to now is    21906.7 secs

     total energy              =    -447.83290818 Ry
     Harris-Foulkes estimate   =    -447.83735715 Ry
     estimated scf accuracy    <       0.22487565 Ry

     iteration # 27     ecut=    30.00 Ry     beta= 0.30
     Davidson diagonalization with overlap
     c_bands:  1 eigenvalues not converged
     ethr =  3.01E-05,  avg # of iterations =  3.4

     negative rho (up, down):  3.642E-02 0.000E+00

     total cpu time spent up to now is    22694.2 secs

     total energy              =    -447.83503945 Ry
     Harris-Foulkes estimate   =    -447.83583424 Ry
     estimated scf accuracy    <       0.01430545 Ry

     iteration # 28     ecut=    30.00 Ry     beta= 0.30
     Davidson diagonalization with overlap
     ethr =  1.31E-05,  avg # of iterations =  2.0

     negative rho (up, down):  3.250E-02 0.000E+00

     total cpu time spent up to now is    23463.8 secs

     total energy              =    -447.83504870 Ry
     Harris-Foulkes estimate   =    -447.83557434 Ry
     estimated scf accuracy    <       0.01386461 Ry

     iteration # 29     ecut=    30.00 Ry     beta= 0.30
     Davidson diagonalization with overlap
     ethr =  1.27E-05,  avg # of iterations =  1.0

     negative rho (up, down):  3.255E-02 0.000E+00

     total cpu time spent up to now is    24226.4 secs

     total energy              =    -447.83507802 Ry
     Harris-Foulkes estimate   =    -447.83511765 Ry
     estimated scf accuracy    <       0.01940681 Ry

     iteration # 30     ecut=    30.00 Ry     beta= 0.30
     Davidson diagonalization with overlap
     ethr =  1.27E-05,  avg # of iterations =  1.0

     negative rho (up, down):  3.395E-02 0.000E+00

     total cpu time spent up to now is    24980.9 secs

     total energy              =    -447.83469971 Ry
     Harris-Foulkes estimate   =    -447.83509283 Ry
     estimated scf accuracy    <       0.01638197 Ry

     iteration # 31     ecut=    30.00 Ry     beta= 0.30
     Davidson diagonalization with overlap
     ethr =  1.27E-05,  avg # of iterations =  1.0

     negative rho (up, down):  3.350E-02 0.000E+00

     total cpu time spent up to now is    25731.7 secs

     total energy              =    -447.83496424 Ry
     Harris-Foulkes estimate   =    -447.83487894 Ry
     estimated scf accuracy    <       0.00644842 Ry

     iteration # 32     ecut=    30.00 Ry     beta= 0.30
     Davidson diagonalization with overlap
     ethr =  5.92E-06,  avg # of iterations =  1.3

     negative rho (up, down):  3.255E-02 0.000E+00

     total cpu time spent up to now is    26490.4 secs

     total energy              =    -447.83492335 Ry
     Harris-Foulkes estimate   =    -447.83501238 Ry
     estimated scf accuracy    <       0.00714061 Ry

     iteration # 33     ecut=    30.00 Ry     beta= 0.30
     Davidson diagonalization with overlap
     ethr =  5.92E-06,  avg # of iterations =  1.0

     negative rho (up, down):  2.418E-02 0.000E+00

     total cpu time spent up to now is    27239.6 secs

     total energy              =    -447.83395919 Ry
     Harris-Foulkes estimate   =    -447.83494819 Ry
     estimated scf accuracy    <       0.00544338 Ry

     iteration # 34     ecut=    30.00 Ry     beta= 0.30
     Davidson diagonalization with overlap
     ethr =  4.99E-06,  avg # of iterations =  1.4

     negative rho (up, down):  2.350E-02 0.000E+00

     total cpu time spent up to now is    27992.7 secs

     total energy              =    -447.83389517 Ry
     Harris-Foulkes estimate   =    -447.83402685 Ry
     estimated scf accuracy    <       0.00467610 Ry

     iteration # 35     ecut=    30.00 Ry     beta= 0.30
     Davidson diagonalization with overlap
     ethr =  4.29E-06,  avg # of iterations =  1.1

     negative rho (up, down):  2.006E-02 0.000E+00

     total cpu time spent up to now is    28737.1 secs

     total energy              =    -447.83253471 Ry
     Harris-Foulkes estimate   =    -447.83391001 Ry
     estimated scf accuracy    <       0.00427262 Ry

     iteration # 36     ecut=    30.00 Ry     beta= 0.30
     Davidson diagonalization with overlap
     c_bands:  1 eigenvalues not converged
     ethr =  3.92E-06,  avg # of iterations =  2.7

     negative rho (up, down):  2.012E-02 0.000E+00

     total cpu time spent up to now is    29557.9 secs

     total energy              =    -447.83255765 Ry
     Harris-Foulkes estimate   =    -447.83273652 Ry
     estimated scf accuracy    <       0.00504177 Ry

     iteration # 37     ecut=    30.00 Ry     beta= 0.30
     Davidson diagonalization with overlap
     ethr =  3.92E-06,  avg # of iterations =  2.1

     negative rho (up, down):  1.628E-02 0.000E+00

     total cpu time spent up to now is    30312.1 secs

     total energy              =    -447.83249824 Ry
     Harris-Foulkes estimate   =    -447.83261397 Ry
     estimated scf accuracy    <       0.00104536 Ry

     iteration # 38     ecut=    30.00 Ry     beta= 0.30
     Davidson diagonalization with overlap
     c_bands:  3 eigenvalues not converged
     c_bands:  1 eigenvalues not converged
     c_bands:  2 eigenvalues not converged
     ethr =  9.59E-07,  avg # of iterations =  7.1

     negative rho (up, down):  1.417E-02 0.000E+00

     total cpu time spent up to now is    31188.7 secs

     total energy              =    -447.83246527 Ry
     Harris-Foulkes estimate   =    -447.83256746 Ry
     estimated scf accuracy    <       0.00292270 Ry

     iteration # 39     ecut=    30.00 Ry     beta= 0.30
     Davidson diagonalization with overlap
     c_bands:  3 eigenvalues not converged
     ethr =  9.59E-07,  avg # of iterations =  3.6

     negative rho (up, down):  1.315E-02 0.000E+00

     total cpu time spent up to now is    31974.9 secs

     total energy              =    -447.83249374 Ry
     Harris-Foulkes estimate   =    -447.83253723 Ry
     estimated scf accuracy    <       0.00097943 Ry

     iteration # 40     ecut=    30.00 Ry     beta= 0.30
     Davidson diagonalization with overlap
     ethr =  8.99E-07,  avg # of iterations =  1.0

     negative rho (up, down):  6.522E-03 0.000E+00

     total cpu time spent up to now is    32722.7 secs

     total energy              =    -447.83236531 Ry
     Harris-Foulkes estimate   =    -447.83250455 Ry
     estimated scf accuracy    <       0.00035764 Ry

     iteration # 41     ecut=    30.00 Ry     beta= 0.30
     Davidson diagonalization with overlap
     ethr =  3.28E-07,  avg # of iterations =  4.4

     negative rho (up, down):  5.559E-03 0.000E+00

     total cpu time spent up to now is    33557.3 secs

     total energy              =    -447.83240324 Ry
     Harris-Foulkes estimate   =    -447.83248291 Ry
     estimated scf accuracy    <       0.00601214 Ry

     iteration # 42     ecut=    30.00 Ry     beta= 0.30
     Davidson diagonalization with overlap
     ethr =  3.28E-07,  avg # of iterations =  2.5

     negative rho (up, down):  5.038E-03 0.000E+00

     total cpu time spent up to now is    34324.1 secs

     total energy              =    -447.83239616 Ry
     Harris-Foulkes estimate   =    -447.83241821 Ry
     estimated scf accuracy    <       0.00252949 Ry

     iteration # 43     ecut=    30.00 Ry     beta= 0.30
     Davidson diagonalization with overlap
     ethr =  3.28E-07,  avg # of iterations =  1.7

     negative rho (up, down):  4.935E-03 0.000E+00

     total cpu time spent up to now is    35078.3 secs

     total energy              =    -447.83239025 Ry
     Harris-Foulkes estimate   =    -447.83240234 Ry
     estimated scf accuracy    <       0.00140891 Ry

     iteration # 44     ecut=    30.00 Ry     beta= 0.30
     Davidson diagonalization with overlap
     ethr =  3.28E-07,  avg # of iterations =  1.0

     negative rho (up, down):  3.949E-03 0.000E+00

     total cpu time spent up to now is    35822.0 secs

     total energy              =    -447.83236542 Ry
     Harris-Foulkes estimate   =    -447.83239187 Ry
     estimated scf accuracy    <       0.00099521 Ry

     iteration # 45     ecut=    30.00 Ry     beta= 0.30
     Davidson diagonalization with overlap
     ethr =  3.28E-07,  avg # of iterations =  3.5

     negative rho (up, down):  2.083E-03 0.000E+00

     total cpu time spent up to now is    36612.2 secs

     total energy              =    -447.83236286 Ry
     Harris-Foulkes estimate   =    -447.83238598 Ry
     estimated scf accuracy    <       0.00029867 Ry

     iteration # 46     ecut=    30.00 Ry     beta= 0.30
     Davidson diagonalization with overlap
     ethr =  2.74E-07,  avg # of iterations =  3.0

     negative rho (up, down):  2.997E-03 0.000E+00

     total cpu time spent up to now is    37391.9 secs

     total energy              =    -447.83235450 Ry
     Harris-Foulkes estimate   =    -447.83237466 Ry
     estimated scf accuracy    <       0.00044569 Ry

     iteration # 47     ecut=    30.00 Ry     beta= 0.30
     Davidson diagonalization with overlap
     ethr =  2.74E-07,  avg # of iterations =  1.1

     negative rho (up, down):  3.161E-03 0.000E+00

     total cpu time spent up to now is    38144.6 secs

     total energy              =    -447.83235935 Ry
     Harris-Foulkes estimate   =    -447.83235839 Ry
     estimated scf accuracy    <       0.00020870 Ry

     iteration # 48     ecut=    30.00 Ry     beta= 0.30
     Davidson diagonalization with overlap
     ethr =  1.91E-07,  avg # of iterations =  1.0

     negative rho (up, down):  2.921E-03 0.000E+00

     total cpu time spent up to now is    38905.0 secs

     total energy              =    -447.83235884 Ry
     Harris-Foulkes estimate   =    -447.83236031 Ry
     estimated scf accuracy    <       0.00012998 Ry

     iteration # 49     ecut=    30.00 Ry     beta= 0.30
     Davidson diagonalization with overlap
     ethr =  1.19E-07,  avg # of iterations =  1.0

     negative rho (up, down):  2.066E-03 0.000E+00

     total cpu time spent up to now is    39674.8 secs

     total energy              =    -447.83235135 Ry
     Harris-Foulkes estimate   =    -447.83235938 Ry
     estimated scf accuracy    <       0.00010288 Ry

     iteration # 50     ecut=    30.00 Ry     beta= 0.30
     Davidson diagonalization with overlap
     ethr =  9.44E-08,  avg # of iterations =  2.5

     negative rho (up, down):  2.208E-03 0.000E+00

     total cpu time spent up to now is    40446.2 secs

     total energy              =    -447.83235656 Ry
     Harris-Foulkes estimate   =    -447.83235555 Ry
     estimated scf accuracy    <       0.00024524 Ry

     iteration # 51     ecut=    30.00 Ry     beta= 0.30
     Davidson diagonalization with overlap
     ethr =  9.44E-08,  avg # of iterations =  1.0

     negative rho (up, down):  1.575E-03 0.000E+00

     total cpu time spent up to now is    41183.4 secs

     total energy              =    -447.83235378 Ry
     Harris-Foulkes estimate   =    -447.83235670 Ry
     estimated scf accuracy    <       0.00023395 Ry

     iteration # 52     ecut=    30.00 Ry     beta= 0.30
     Davidson diagonalization with overlap
     ethr =  9.44E-08,  avg # of iterations =  1.0

     negative rho (up, down):  7.090E-04 0.000E+00

     total cpu time spent up to now is    41937.6 secs

     total energy              =    -447.83234802 Ry
     Harris-Foulkes estimate   =    -447.83235415 Ry
     estimated scf accuracy    <       0.00030864 Ry

     iteration # 53     ecut=    30.00 Ry     beta= 0.30
     Davidson diagonalization with overlap
     ethr =  9.44E-08,  avg # of iterations =  1.0

     negative rho (up, down):  9.836E-04 0.000E+00

     total cpu time spent up to now is    42681.7 secs

     total energy              =    -447.83234602 Ry
     Harris-Foulkes estimate   =    -447.83234862 Ry
     estimated scf accuracy    <       0.00021209 Ry

     iteration # 54     ecut=    30.00 Ry     beta= 0.30
     Davidson diagonalization with overlap
     ethr =  9.44E-08,  avg # of iterations =  1.1

     negative rho (up, down):  6.741E-04 0.000E+00

     total cpu time spent up to now is    43453.8 secs

     total energy              =    -447.83234488 Ry
     Harris-Foulkes estimate   =    -447.83234721 Ry
     estimated scf accuracy    <       0.00011761 Ry

     iteration # 55     ecut=    30.00 Ry     beta= 0.30
     Davidson diagonalization with overlap
     ethr =  9.44E-08,  avg # of iterations =  1.0

     negative rho (up, down):  8.420E-04 0.000E+00

     total cpu time spent up to now is    44196.4 secs

     total energy              =    -447.83234108 Ry
     Harris-Foulkes estimate   =    -447.83234502 Ry
     estimated scf accuracy    <       0.00009818 Ry

     iteration # 56     ecut=    30.00 Ry     beta= 0.30
     Davidson diagonalization with overlap
     ethr =  9.01E-08,  avg # of iterations =  1.8

     negative rho (up, down):  1.518E-04 0.000E+00

     total cpu time spent up to now is    44958.8 secs

     total energy              =    -447.83233450 Ry
     Harris-Foulkes estimate   =    -447.83234294 Ry
     estimated scf accuracy    <       0.00009325 Ry

     iteration # 57     ecut=    30.00 Ry     beta= 0.30
     Davidson diagonalization with overlap
     ethr =  8.55E-08,  avg # of iterations =  1.4

     negative rho (up, down):  1.514E-03 0.000E+00

     total cpu time spent up to now is    45722.2 secs

     total energy              =    -447.83232246 Ry
     Harris-Foulkes estimate   =    -447.83233576 Ry
     estimated scf accuracy    <       0.00016699 Ry

     iteration # 58     ecut=    30.00 Ry     beta= 0.30
     Davidson diagonalization with overlap
     ethr =  8.55E-08,  avg # of iterations =  1.0

     negative rho (up, down):  1.825E-03 0.000E+00

     total cpu time spent up to now is    46463.4 secs

     total energy              =    -447.83231525 Ry
     Harris-Foulkes estimate   =    -447.83232329 Ry
     estimated scf accuracy    <       0.00008437 Ry

     iteration # 59     ecut=    30.00 Ry     beta= 0.30
     Davidson diagonalization with overlap
     ethr =  7.74E-08,  avg # of iterations =  1.1

     negative rho (up, down):  1.643E-03 0.000E+00

     total cpu time spent up to now is    47208.7 secs

     total energy              =    -447.83231861 Ry
     Harris-Foulkes estimate   =    -447.83231631 Ry
     estimated scf accuracy    <       0.00004680 Ry

     iteration # 60     ecut=    30.00 Ry     beta= 0.30
     Davidson diagonalization with overlap
     ethr =  4.29E-08,  avg # of iterations =  2.8

     negative rho (up, down):  1.703E-03 0.000E+00

     total cpu time spent up to now is    48026.9 secs

     total energy              =    -447.83232344 Ry
     Harris-Foulkes estimate   =    -447.83232179 Ry
     estimated scf accuracy    <       0.00016490 Ry

     iteration # 61     ecut=    30.00 Ry     beta= 0.30
     Davidson diagonalization with overlap
     ethr =  4.29E-08,  avg # of iterations =  1.0

     negative rho (up, down):  1.815E-03 0.000E+00

     total cpu time spent up to now is    48772.7 secs

     total energy              =    -447.83232859 Ry
     Harris-Foulkes estimate   =    -447.83232368 Ry
     estimated scf accuracy    <       0.00010004 Ry

     iteration # 62     ecut=    30.00 Ry     beta= 0.30
     Davidson diagonalization with overlap
     ethr =  4.29E-08,  avg # of iterations =  1.9

     negative rho (up, down):  4.893E-05 0.000E+00

     total cpu time spent up to now is    49509.8 secs

     End of self-consistent calculation

          k = 0.0000 0.0000 0.0000 ( 44015 PWs)   bands (ev):

    -9.3474  -9.3270  -9.2960  -9.2556  -9.2094  -9.1603  -9.1177  -9.0865
    -9.0671  -4.4783  -3.6086  -3.5719  -3.5682  -3.5682  -3.5659  -3.5631
    -3.5631  -3.5570  -3.5530  -3.5530  -3.5434  -3.5377  -3.5377  -3.5271
    -3.5242  -3.5242  -3.5111  -3.5084  -3.5084  -3.4995  -3.4886  -3.4886
    -3.4829  -3.4725  -3.4725  -3.4703  -3.4627  -3.4627  -3.4129  -3.2086
    -3.0514  -3.0467  -3.0467  -3.0367  -3.0273  -3.0273  -3.0108  -2.9997
    -2.9997  -2.9791  -2.9701  -2.9701  -2.9467  -2.9434  -2.9434  -2.9187
    -2.9184  -2.9183  -2.9070  -2.9005  -2.9005  -2.8952  -2.8905  -2.8904
    -2.8863  -2.8857

          k = 0.0000 0.0577 0.0000 ( 44017 PWs)   bands (ev):

    -9.3322  -9.3117  -9.2807  -9.2404  -9.1941  -9.1450  -9.1025  -9.0712
    -9.0518  -4.5197  -3.9822  -3.9605  -3.9282  -3.8890  -3.8542  -3.8264
    -3.7958  -3.7707  -3.7553  -3.7244  -3.7234  -3.7074  -3.7042  -3.6818
    -3.6765  -3.6528  -3.6442  -3.6253  -3.6199  -3.5979  -3.5935  -3.5750
    -3.5641  -3.5621  -3.5487  -3.5428  -3.5365  -3.5326  -3.4165  -3.1853
    -2.9599  -2.9302  -2.9255  -2.9119  -2.9002  -2.8846  -2.8675  -2.8531
    -2.8337  -2.8212  -2.8159  -2.7862  -2.7857  -2.7567  -2.7533  -2.7342
    -2.7288  -2.7163  -2.7144  -2.7030  -2.6870  -2.6596  -2.6247  -2.5855
    -2.5439  -2.5091

          k = 0.0000 0.1155 0.0000 ( 44021 PWs)   bands (ev):

    -9.2866  -9.2660  -9.2350  -9.1947  -9.1484  -9.0993  -9.0568  -9.0255
    -9.0062  -4.7095  -4.5011  -4.4755  -4.4381  -4.3924  -4.3439  -4.3025
    -4.2756  -4.2584  -4.2144  -3.9400  -3.9380  -3.9211  -3.9146  -3.8924
    -3.8803  -3.8592  -3.8382  -3.8257  -3.7941  -3.7870  -3.7570  -3.7508
    -3.7349  -3.7241  -3.7211  -3.7104  -3.7100  -3.5363  -3.3755  -3.1347
    -2.8371  -2.6757  -2.6573  -2.6510  -2.6382  -2.6231  -2.6092  -2.5865
    -2.5751  -2.5446  -2.5397  -2.5016  -2.4999  -2.4686  -2.4633  -2.4605
    -2.4423  -2.4358  -2.4221  -2.4199  -2.1371  -2.1232  -2.1063  -2.0776
    -2.0402  -1.9978

          k = 0.0000 0.1732 0.0000 ( 44034 PWs)   bands (ev):

    -9.2106  -9.1899  -9.1589  -9.1186  -9.0723  -9.0232  -8.9806  -8.9494
    -8.9301  -5.0971  -5.0070  -4.9795  -4.9405  -4.8943  -4.8460  -4.8051
    -4.7764  -4.7581  -4.4127  -4.1456  -4.1431  -4.1261  -4.1181  -4.0964
    -4.0814  -4.0618  -4.0369  -4.0263  -3.9906  -3.9855  -3.9525  -3.9473
    -3.9260  -3.9188  -3.9070  -3.9037  -3.7780  -3.4639  -3.3028  -3.0595
    -2.7524  -2.4207  -2.3522  -2.3191  -2.3142  -2.2997  -2.2863  -2.2702
    -2.2484  -2.2355  -2.2047  -2.1995  -2.1606  -2.1589  -2.1275  -2.1215
    -2.1021  -2.0934  -2.0805  -2.0776  -2.0549  -1.7771  -1.5679  -1.4940
    -1.4731  -1.4454

          k = 0.0000 0.2309 0.0000 ( 43964 PWs)   bands (ev):

    -9.1042  -9.0833  -9.0524  -9.0121  -8.9657  -8.9167  -8.8742  -8.8430
    -8.8236  -5.5446  -5.4898  -5.4611  -5.4216  -5.3753  -5.3270  -5.2860
    -5.2569  -5.2385  -4.5510  -4.3288  -4.3259  -4.3089  -4.2999  -4.2787
    -4.2622  -4.2434  -4.2168  -4.2070  -4.1697  -4.1652  -4.1312  -4.1262
    -4.1039  -4.0971  -4.0844  -4.0815  -3.7694  -3.3612  -3.2006  -2.9569
    -2.6479  -2.2984  -2.0525  -1.9534  -1.9421  -1.9383  -1.9227  -1.9114
    -1.8933  -1.8735  -1.8586  -1.8290  -1.8227  -1.7840  -1.7822  -1.7521
    -1.7450  -1.7277  -1.7169  -1.7046  -1.7010  -1.6622  -1.4413  -1.0467
    -0.8130  -0.7873

          k = 0.0000 0.2887 0.0000 ( 43914 PWs)   bands (ev):

    -8.9677  -8.9465  -8.9156  -8.8753  -8.8289  -8.7798  -8.7374  -8.7062
    -8.6869  -5.9869  -5.9466  -5.9173  -5.8775  -5.8312  -5.7827  -5.7416
    -5.7120  -5.6934  -4.6748  -4.4858  -4.4828  -4.4658  -4.4562  -4.4353
    -4.4180  -4.3997  -4.3722  -4.3628  -4.3248  -4.3206  -4.2860  -4.2811
    -4.2583  -4.2516  -4.2385  -4.2356  -3.7137  -3.2289  -3.0693  -2.8259
    -2.5168  -2.1661  -1.8320  -1.7551  -1.5345  -1.5322  -1.5173  -1.5152
    -1.5023  -1.4859  -1.4667  -1.4513  -1.4227  -1.4158  -1.3776  -1.3756
    -1.3471  -1.3388  -1.3253  -1.3113  -1.3026  -1.2958  -1.2938  -0.9521
    -0.3045  -0.2000

          k = 0.0000 0.3464 0.0000 ( 43922 PWs)   bands (ev):

    -8.8011  -8.7795  -8.7486  -8.7083  -8.6620  -8.6128  -8.5704  -8.5393
    -8.5200  -6.4090  -6.3763  -6.3464  -6.3065  -6.2603  -6.2118  -6.1704
    -6.1404  -6.1216  -4.7828  -4.6154  -4.6122  -4.5952  -4.5853  -4.5646
    -4.5467  -4.5288  -4.5007  -4.4915  -4.4530  -4.4489  -4.4139  -4.4092
    -4.3860  -4.3795  -4.3659  -4.3632  -3.6289  -3.0671  -2.9091  -2.6670
    -2.3585  -2.0074  -1.6743  -1.5867  -1.3272  -1.1266  -1.0984  -1.0956
    -1.0795  -1.0711  -1.0506  -1.0351  -1.0167  -0.9912  -0.9819  -0.9454
    -0.9424  -0.9306  -0.9062  -0.9020  -0.8794  -0.8723  -0.8643  -0.8538
    -0.7144  -0.5655

          k = 0.0000 0.4041 0.0000 ( 43890 PWs)   bands (ev):

    -8.6047  -8.5825  -8.5516  -8.5113  -8.4649  -8.4158  -8.3735  -8.3424
    -8.3231  -6.8062  -6.7780  -6.7478  -6.7078  -6.6617  -6.6131  -6.5714
    -6.5412  -6.5223  -4.8703  -4.7166  -4.7134  -4.6965  -4.6863  -4.6658
    -4.6475  -4.6297  -4.6012  -4.5923  -4.5533  -4.5494  -4.5141  -4.5094
    -4.4859  -4.4794  -4.4658  -4.4631  -3.5300  -2.8761  -2.7203  -2.4805
    -2.1742  -1.8250  -1.5819  -1.4707  -1.1667  -1.1102  -0.9728  -0.9363
    -0.7479  -0.6384  -0.6382  -0.6224  -0.6194  -0.5989  -0.5908  -0.5670
    -0.5574  -0.5281  -0.5233  -0.4868  -0.4848  -0.4544  -0.4496  -0.4322
    -0.4233  -0.4133

          k = 0.0000 0.4619 0.0000 ( 43856 PWs)   bands (ev):

    -8.3788  -8.3556  -8.3248  -8.2844  -8.2380  -8.1889  -8.1466  -8.1156
    -8.0963  -7.1764  -7.1513  -7.1209  -7.0808  -7.0347  -6.9861  -6.9443
    -6.9140  -6.8949  -4.9343  -4.7892  -4.7859  -4.7690  -4.7586  -4.7382
    -4.7196  -4.7020  -4.6732  -4.6644  -4.6253  -4.6214  -4.5859  -4.5813
    -4.5576  -4.5512  -4.5374  -4.5347  -3.4337  -2.6561  -2.5037  -2.2689
    -1.9723  -1.6942  -1.5667  -1.4714  -1.3162  -1.2590  -1.0854  -0.9634
    -0.7892  -0.7346  -0.4478  -0.3093  -0.1577  -0.1548  -0.1393  -0.1304
    -0.1112  -0.1105  -0.0946  -0.0787  -0.0529  -0.0459  -0.0109  -0.0090
     0.0161   0.0247

          k = 0.0000 0.5196 0.0000 ( 43904 PWs)   bands (ev):

    -8.1245  -8.0991  -8.0685  -8.0281  -7.9815  -7.9324  -7.8900  -7.8591
    -7.8399  -7.5175  -7.4956  -7.4649  -7.4250  -7.3790  -7.3304  -7.2886
    -7.2580  -7.2390  -4.9733  -4.8329  -4.8295  -4.8126  -4.8022  -4.7818
    -4.7631  -4.7455  -4.7165  -4.7077  -4.6685  -4.6646  -4.6291  -4.6245
    -4.6008  -4.5944  -4.5806  -4.5779  -3.3607  -2.4076  -2.2621  -2.0455
    -1.8554  -1.7953  -1.6802  -1.6004  -1.4017  -1.3334  -1.1038  -1.0155
    -0.7717  -0.7347  -0.5192  -0.4408  -0.2636  -0.0793   0.0987   0.3261
     0.3279   0.3437   0.3493   0.3702   0.3811   0.4002   0.4190   0.4294
     0.4551   0.4622

          k = 0.0000-0.5774 0.0000 ( 43922 PWs)   bands (ev):

    -7.8826  -7.8205  -7.8152  -7.8004  -7.7858  -7.7682  -7.7448  -7.7289
    -7.6967  -7.6883  -7.6467  -7.6439  -7.6040  -7.6036  -7.5736  -7.5727
    -7.5541  -7.5539  -4.9864  -4.8474  -4.8440  -4.8272  -4.8167  -4.7963
    -4.7776  -4.7600  -4.7310  -4.7222  -4.6830  -4.6792  -4.6437  -4.6390
    -4.6152  -4.6088  -4.5950  -4.5924  -3.3329  -2.1433  -2.1253  -2.0352
    -1.9718  -1.8608  -1.7327  -1.6333  -1.4253  -1.3631  -1.0774  -1.0560
    -0.7536  -0.7349  -0.5369  -0.4388  -0.2928  -0.2202  -0.0542   0.6767
     0.6776   0.6862   0.6865   0.6981   0.6982   0.7129   0.7134   0.7252
     0.7280   0.7412

          k = 0.0500 0.0866 0.0000 ( 44009 PWs)   bands (ev):

    -9.3018  -9.2813  -9.2503  -9.2099  -9.1637  -9.1146  -9.0720  -9.0408
    -9.0214  -4.6241  -4.2337  -4.2302  -4.2153  -4.2053  -4.1856  -4.1685
    -4.1496  -4.1235  -4.1126  -4.0761  -4.0721  -4.0365  -4.0356  -4.0099
    -4.0094  -3.9932  -3.9921  -3.9134  -3.5580  -3.5258  -3.5209  -3.5113
    -3.4969  -3.4829  -3.4666  -3.4489  -3.4349  -3.4267  -3.3788  -3.1542
    -3.0038  -2.9870  -2.9615  -2.9317  -2.9016  -2.8747  -2.8610  -2.8509
    -2.8424  -2.8172  -2.4953  -2.4312  -2.4057  -2.3997  -2.3871  -2.3716
    -2.3572  -2.3337  -2.3213  -2.2904  -2.2848  -2.2466  -2.2447  -2.2122
    -2.2086  -2.1863

          k = 0.0500 0.1443 0.0000 ( 44024 PWs)   bands (ev):

    -9.2410  -9.2203  -9.1893  -9.1490  -9.1027  -9.0536  -9.0111  -8.9799
    -8.9605  -4.8947  -4.7460  -4.7197  -4.6816  -4.6355  -4.5870  -4.5453
    -4.5188  -4.5072  -4.4962  -4.4560  -4.4288  -4.3909  -4.3460  -4.2988
    -4.2590  -4.2316  -4.2138  -4.0078  -3.6373  -3.6191  -3.5921  -3.5612
    -3.5365  -3.5100  -3.4895  -3.4784  -3.4604  -3.4501  -3.3305  -3.0923
    -2.8540  -2.8356  -2.8104  -2.7793  -2.7495  -2.7311  -2.6988  -2.6680
    -2.6450  -2.6287  -2.4235  -2.1111  -2.0820  -2.0654  -2.0377  -2.0000
    -1.9564  -1.9114  -1.8772  -1.8566  -1.8347  -1.8202  -1.7875  -1.7730
    -1.7516  -1.7165

          k = 0.0500 0.2021 0.0000 ( 44004 PWs)   bands (ev):

    -9.1498  -9.1290  -9.0980  -9.0577  -9.0114  -8.9623  -8.9198  -8.8886
    -8.8692  -5.3127  -5.2406  -5.2126  -5.1733  -5.1270  -5.0786  -5.0376
    -5.0086  -4.9904  -4.7275  -4.6572  -4.6297  -4.5912  -4.5456  -4.4978
    -4.4577  -4.4297  -4.4117  -4.0556  -3.8081  -3.7853  -3.7514  -3.7098
    -3.6664  -3.6355  -3.6226  -3.5979  -3.5830  -3.4047  -3.2442  -3.0018
    -2.6980  -2.5329  -2.5169  -2.4893  -2.4539  -2.4135  -2.3712  -2.3373
    -2.3322  -2.3106  -2.2926  -1.9999  -1.7983  -1.7024  -1.6875  -1.6681
    -1.6333  -1.5905  -1.5459  -1.5121  -1.4926  -1.4740  -1.4637  -1.2211
    -1.1360  -1.1090

          k = 0.0500 0.2598 0.0000 ( 43975 PWs)   bands (ev):

    -9.0284  -9.0073  -8.9764  -8.9361  -8.8897  -8.8406  -8.7982  -8.7670
    -8.7476  -5.7580  -5.7106  -5.6815  -5.6418  -5.5955  -5.5471  -5.5061
    -5.4767  -5.4582  -4.8956  -4.8308  -4.8027  -4.7638  -4.7180  -4.6701
    -4.6298  -4.6014  -4.5832  -4.1217  -3.9688  -3.9438  -3.9073  -3.8630
    -3.8163  -3.7768  -3.7507  -3.7343  -3.6690  -3.2876  -3.1276  -2.8845
    -2.5763  -2.2332  -2.1611  -2.1401  -2.1119  -2.0748  -2.0324  -1.9888
    -1.9543  -1.9294  -1.9095  -1.8821  -1.6292  -1.4432  -1.3288  -1.3046
    -1.2780  -1.2409  -1.1971  -1.1521  -1.1188  -1.0965  -1.0751  -0.9135
    -0.4650  -0.4385

          k = 0.0500 0.3175 0.0000 ( 43954 PWs)   bands (ev):

    -8.8768  -8.8554  -8.8245  -8.7842  -8.7378  -8.6887  -8.6463  -8.6152
    -8.5958  -6.1903  -6.1538  -6.1242  -6.0844  -6.0382  -5.9897  -5.9483
    -5.9185  -5.8998  -5.0345  -4.9760  -4.9477  -4.9085  -4.8625  -4.8146
    -4.7741  -4.7454  -4.7271  -4.2117  -4.1073  -4.0810  -4.0434  -3.9985
    -3.9514  -3.9118  -3.8845  -3.8672  -3.6320  -3.1406  -2.9818  -2.7393
    -2.4308  -2.0805  -1.8086  -1.7355  -1.7254  -1.6987  -1.6612  -1.6171
    -1.5720  -1.5405  -1.5193  -1.4953  -1.4646  -1.2858  -1.1382  -0.8843
    -0.8605  -0.8256  -0.7834  -0.7503  -0.7308  -0.6940  -0.6655  -0.6513
    -0.5000  -0.3582

          k = 0.0500 0.3753 0.0000 ( 43872 PWs)   bands (ev):

    -8.6953  -8.6733  -8.6425  -8.6022  -8.5558  -8.5067  -8.4643  -8.4332
    -8.4139  -6.6000  -6.5695  -6.5395  -6.4996  -6.4533  -6.4048  -6.3632
    -6.3332  -6.3144  -5.1463  -5.0925  -5.0640  -5.0247  -4.9787  -4.9306
    -4.8900  -4.8612  -4.8427  -4.3011  -4.2199  -4.1929  -4.1548  -4.1096
    -4.0623  -4.0225  -3.9947  -3.9772  -3.5530  -2.9642  -2.8073  -2.5663
    -2.2589  -1.9084  -1.6074  -1.5483  -1.2805  -1.2619  -1.2482  -1.2186
    -1.1770  -1.1406  -1.1255  -1.0892  -1.0609  -1.0467  -1.0196  -0.9048
    -0.7565  -0.5391  -0.4395  -0.4217  -0.3959  -0.3642  -0.3270  -0.2866
    -0.2543  -0.2351

          k = 0.0500 0.4330 0.0000 ( 43856 PWs)   bands (ev):

    -8.4841  -8.4614  -8.4306  -8.3902  -8.3438  -8.2948  -8.2524  -8.2214
    -8.2021  -6.9837  -6.9571  -6.9267  -6.8867  -6.8406  -6.7920  -6.7503
    -6.7200  -6.7010  -5.2308  -5.1802  -5.1514  -5.1120  -5.0660  -5.0179
    -4.9773  -4.9482  -4.9297  -4.3744  -4.3051  -4.2776  -4.2392  -4.1939
    -4.1464  -4.1065  -4.0786  -4.0608  -3.4601  -2.7587  -2.6044  -2.3668
    -2.0637  -1.7256  -1.5903  -1.3595  -1.2861  -1.1389  -1.0566  -0.9115
    -0.8320  -0.8106  -0.7934  -0.7679  -0.7365  -0.6998  -0.6591  -0.6247
    -0.6025  -0.5876  -0.5793  -0.2616  -0.1077   0.0308   0.0555   0.0746
     0.0932   0.1361

          k = 0.0500 0.4907 0.0000 ( 43831 PWs)   bands (ev):

    -8.2438  -8.2197  -8.1889  -8.1486  -8.1021  -8.0530  -8.0107  -7.9797
    -7.9605  -7.3396  -7.3159  -7.2854  -7.2453  -7.1993  -7.1506  -7.1088
    -7.0784  -7.0593  -5.2873  -5.2386  -5.2098  -5.1704  -5.1243  -5.0761
    -5.0354  -5.0064  -4.9879  -4.4255  -4.3624  -4.3346  -4.2959  -4.2505
    -4.2030  -4.1631  -4.1350  -4.1171  -3.3762  -2.5243  -2.3747  -2.1456
    -1.8713  -1.6993  -1.6239  -1.4794  -1.4391  -1.2336  -1.1300  -0.9423
    -0.8397  -0.6283  -0.5927  -0.3906  -0.3200  -0.2960  -0.2684  -0.2604
    -0.2215  -0.1803  -0.1495  -0.1318  -0.1119  -0.0735   0.0706   0.2574
     0.3930   0.4782

          k = 0.0500 0.5485 0.0000 ( 43888 PWs)   bands (ev):

    -7.9778  -7.9489  -7.9185  -7.8782  -7.8314  -7.7820  -7.7395  -7.7085
    -7.6894  -7.6633  -7.6445  -7.6141  -7.5744  -7.5288  -7.4804  -7.4386
    -7.4080  -7.3889  -5.3156  -5.2679  -5.2391  -5.1996  -5.1534  -5.1052
    -5.0645  -5.0355  -5.0170  -4.4515  -4.3911  -4.3632  -4.3245  -4.2790
    -4.2315  -4.1915  -4.1632  -4.1453  -3.3251  -2.2624  -2.1261  -1.9836
    -1.9310  -1.8311  -1.7299  -1.5650  -1.4860  -1.2466  -1.1901  -0.9101
    -0.8726  -0.6226  -0.5769  -0.4168  -0.3165  -0.1824  -0.0343   0.1398
     0.1562   0.1800   0.2082   0.2321   0.2517   0.2727   0.2887   0.2967
     0.3727   0.5089

          k = 0.1000 0.1732 0.0000 ( 44007 PWs)   bands (ev):

    -9.1650  -9.1442  -9.1132  -9.0729  -9.0266  -8.9775  -8.9350  -8.9038
    -8.8844  -5.1376  -4.9677  -4.9635  -4.9484  -4.9364  -4.9176  -4.8974
    -4.8801  -4.8507  -4.8414  -4.8021  -4.7991  -4.7613  -4.7608  -4.7326
    -4.7323  -4.7145  -4.7143  -4.0101  -3.4258  -3.3981  -3.3932  -3.3835
    -3.3690  -3.3547  -3.3384  -3.3210  -3.3073  -3.2993  -3.2481  -3.0220
    -2.8719  -2.8553  -2.8299  -2.8001  -2.7702  -2.7434  -2.7295  -2.7196
    -2.7112  -2.6839  -2.3503  -2.0144  -1.7685  -1.5985  -1.4648  -1.4371
    -1.4324  -1.4184  -1.4057  -1.3887  -1.3680  -1.3531  -1.3238  -1.3170
    -1.2792  -1.2776

          k = 0.1000 0.2309 0.0000 ( 43999 PWs)   bands (ev):

    -9.0587  -9.0377  -9.0068  -8.9665  -8.9201  -8.8710  -8.8286  -8.7974
    -8.7780  -5.5156  -5.4461  -5.4180  -5.3788  -5.3323  -5.2836  -5.2421
    -5.2130  -5.1951  -5.1783  -5.1506  -5.1215  -5.0826  -5.0374  -4.9900
    -4.9497  -4.9207  -4.9024  -3.9772  -3.4654  -3.4472  -3.4205  -3.3897
    -3.3648  -3.3384  -3.3156  -3.3064  -3.2898  -3.2798  -3.1553  -2.9176
    -2.6797  -2.6613  -2.6362  -2.6052  -2.5749  -2.5570  -2.5254  -2.4949
    -2.4721  -2.4562  -2.2479  -1.9128  -1.6567  -1.4349  -1.2533  -1.0524
    -1.0272  -0.9905  -0.9462  -0.9002  -0.8868  -0.8588  -0.8302  -0.8166
    -0.7704  -0.7440

          k = 0.1000 0.2887 0.0000 ( 43971 PWs)   bands (ev):

    -8.9223  -8.9009  -8.8700  -8.8297  -8.7834  -8.7343  -8.6918  -8.6607
    -8.6414  -5.9469  -5.9025  -5.8733  -5.8336  -5.7872  -5.7386  -5.6973
    -5.6677  -5.6492  -5.3500  -5.3123  -5.2831  -5.2439  -5.1982  -5.1504
    -5.1098  -5.0806  -5.0621  -3.9477  -3.5922  -3.5697  -3.5364  -3.4953
    -3.4530  -3.4256  -3.4085  -3.3835  -3.3688  -3.1841  -3.0253  -2.7842
    -2.4815  -2.3176  -2.3017  -2.2745  -2.2393  -2.1992  -2.1573  -2.1233
    -2.1147  -2.0969  -2.0791  -1.7826  -1.5373  -1.3205  -1.1361  -0.6453
    -0.6219  -0.5875  -0.5472  -0.5195  -0.4919  -0.4557  -0.4281  -0.4144
    -0.2614  -0.1588

          k = 0.1000 0.3464 0.0000 ( 43932 PWs)   bands (ev):

    -8.7558  -8.7340  -8.7031  -8.6628  -8.6165  -8.5674  -8.5249  -8.4939
    -8.4745  -6.3663  -6.3318  -6.3021  -6.2622  -6.2159  -6.1673  -6.1258
    -6.0959  -6.0772  -5.4826  -5.4444  -5.4152  -5.3758  -5.3300  -5.2820
    -5.2412  -5.2119  -5.1934  -3.9458  -3.7090  -3.6845  -3.6486  -3.6046
    -3.5579  -3.5182  -3.4934  -3.4772  -3.4434  -3.0228  -2.8653  -2.6244
    -2.3180  -1.9793  -1.9080  -1.8858  -1.8582  -1.8214  -1.7791  -1.7355
    -1.7018  -1.6779  -1.6577  -1.6220  -1.4184  -1.2341  -1.0586  -0.6755
    -0.5337  -0.3253  -0.2164  -0.1974  -0.1709  -0.1387  -0.1009  -0.0619
    -0.0418  -0.0222

          k = 0.1000 0.4041 0.0000 ( 43876 PWs)   bands (ev):

    -8.5595  -8.5370  -8.5062  -8.4659  -8.4195  -8.3704  -8.3280  -8.2970
    -8.2777  -6.7624  -6.7333  -6.7032  -6.6632  -6.6170  -6.5684  -6.5267
    -6.4966  -6.4777  -5.5847  -5.5473  -5.5180  -5.4784  -5.4326  -5.3845
    -5.3437  -5.3143  -5.2956  -3.9728  -3.8036  -3.7781  -3.7411  -3.6962
    -3.6490  -3.6094  -3.5828  -3.5657  -3.4083  -2.8320  -2.6766  -2.4377
    -2.1329  -1.7873  -1.6140  -1.4343  -1.4313  -1.4095  -1.3747  -1.3322
    -1.2960  -1.2807  -1.2441  -1.2153  -1.2009  -1.1223  -1.0634  -0.9255
    -0.8907  -0.6826  -0.3988  -0.1375  -0.0119   0.0927   0.1897   0.2406
     0.2834   0.2902

          k = 0.1000 0.4619 0.0000 ( 43806 PWs)   bands (ev):

    -8.3337  -8.3102  -8.2794  -8.2391  -8.1927  -8.1436  -8.1012  -8.0703
    -8.0510  -7.1320  -7.1065  -7.0761  -7.0360  -6.9899  -6.9413  -6.8995
    -6.8692  -6.8501  -5.6575  -5.6209  -5.5915  -5.5519  -5.5059  -5.4578
    -5.4170  -5.3875  -5.3688  -4.0079  -3.8725  -3.8463  -3.8087  -3.7635
    -3.7162  -3.6766  -3.6495  -3.6321  -3.3431  -2.6120  -2.4601  -2.2262
    -1.9314  -1.6600  -1.5241  -1.4288  -1.2762  -1.2156  -1.0551  -0.9567
    -0.9399  -0.9214  -0.9125  -0.8832  -0.8474  -0.8072  -0.7731  -0.7509
    -0.7366  -0.7282  -0.6915  -0.4023  -0.2329  -0.0657   0.0277   0.1669
     0.2303   0.3849

          k = 0.1000 0.5196 0.0000 ( 43824 PWs)   bands (ev):

    -8.0796  -8.0539  -8.0232  -7.9829  -7.9363  -7.8871  -7.8448  -7.8139
    -7.7947  -7.4727  -7.4506  -7.4200  -7.3800  -7.3340  -7.2854  -7.2436
    -7.2131  -7.1940  -5.7012  -5.6651  -5.6356  -5.5960  -5.5501  -5.5020
    -5.4610  -5.4314  -5.4128  -4.0342  -3.9143  -3.8877  -3.8498  -3.8045
    -3.7571  -3.7174  -3.6901  -3.6725  -3.2850  -2.3636  -2.2186  -2.0028
    -1.8117  -1.7520  -1.6368  -1.5570  -1.3600  -1.2897  -1.0635  -0.9721
    -0.7367  -0.6958  -0.5418  -0.4700  -0.4532  -0.4387  -0.4129  -0.3962
    -0.3769  -0.3387  -0.3076  -0.2890  -0.2744  -0.2496  -0.0877  -0.0122
     0.1093   0.1485

          k = 0.1000 0.5774 0.0000 ( 43838 PWs)   bands (ev):

    -7.8384  -7.7753  -7.7700  -7.7552  -7.7407  -7.7230  -7.6997  -7.6838
    -7.6516  -7.6432  -7.6016  -7.5988  -7.5589  -7.5585  -7.5285  -7.5277
    -7.5091  -7.5088  -5.7157  -5.6798  -5.6503  -5.6107  -5.5648  -5.5167
    -5.4757  -5.4461  -5.4274  -4.0437  -3.9282  -3.9016  -3.8636  -3.8183
    -3.7708  -3.7311  -3.7037  -3.6861  -3.2618  -2.0992  -2.0813  -1.9911
    -1.9283  -1.8168  -1.6898  -1.5894  -1.3831  -1.3195  -1.0352  -1.0125
    -0.7135  -0.6916  -0.5546  -0.3960  -0.3301  -0.1776  -0.1614  -0.1227
    -0.1167  -0.1063  -0.0917  -0.0774  -0.0633  -0.0488  -0.0385  -0.0323
    -0.0122   0.1253

          k = 0.1500 0.2598 0.0000 ( 43925 PWs)   bands (ev):

    -8.9374  -8.9161  -8.8852  -8.8449  -8.7986  -8.7495  -8.7070  -8.6759
    -8.6565  -5.7387  -5.6276  -5.6231  -5.6082  -5.5952  -5.5769  -5.5554
    -5.5388  -5.5082  -5.4994  -5.4591  -5.4562  -5.4178  -5.4173  -5.3884
    -5.3880  -5.3698  -5.3697  -3.9007  -3.2050  -3.1850  -3.1799  -3.1702
    -3.1558  -3.1414  -3.1251  -3.1077  -3.0942  -3.0868  -3.0305  -2.8045
    -2.6537  -2.6372  -2.6122  -2.5829  -2.5532  -2.5267  -2.5129  -2.5031
    -2.4947  -2.4656  -2.1323  -1.7973  -1.5513  -1.3294  -1.1291  -0.3837
    -0.3807  -0.3642  -0.3556  -0.3334  -0.3182  -0.2973  -0.2748  -0.2629
    -0.2527  -0.2266

          k = 0.1500 0.3175 0.0000 ( 43918 PWs)   bands (ev):

    -8.7860  -8.7643  -8.7334  -8.6932  -8.6468  -8.5977  -8.5553  -8.5242
    -8.5049  -6.1123  -6.0655  -6.0366  -5.9969  -5.9503  -5.9014  -5.8596
    -5.8298  -5.8114  -5.7895  -5.7671  -5.7374  -5.6983  -5.6530  -5.6053
    -5.5645  -5.5349  -5.5164  -3.8272  -3.2080  -3.1900  -3.1635  -3.1328
    -3.1075  -3.0815  -3.0566  -3.0465  -3.0341  -3.0245  -2.8931  -2.6573
    -2.4216  -2.4029  -2.3780  -2.3470  -2.3157  -2.2983  -2.2685  -2.2383
    -2.2157  -2.1999  -1.9873  -1.6534  -1.4475  -1.2433  -1.0691  -0.4173
    -0.2897  -0.1456  -0.1063  -0.0304   0.0244   0.0563   0.0880   0.1092
     0.1303   0.1542

          k = 0.1500 0.3753 0.0000 ( 43900 PWs)   bands (ev):

    -8.6047  -8.5825  -8.5516  -8.5113  -8.4649  -8.4158  -8.3735  -8.3424
    -8.3231  -6.5145  -6.4806  -6.4507  -6.4108  -6.3644  -6.3157  -6.2741
    -6.2441  -6.2253  -5.9147  -5.8863  -5.8564  -5.8169  -5.7712  -5.7232
    -5.6821  -5.6525  -5.6339  -3.7654  -3.2907  -3.2688  -3.2361  -3.1956
    -3.1551  -3.1309  -3.1092  -3.0844  -3.0698  -2.8755  -2.7199  -2.4820
    -2.1834  -2.0211  -2.0054  -1.9787  -1.9441  -1.9043  -1.8626  -1.8294
    -1.8134  -1.8021  -1.7861  -1.4851  -1.4041  -1.1442  -0.9387  -0.8201
    -0.6768  -0.4667  -0.2787  -0.2199  -0.1123  -0.0359   0.1458   0.2153
     0.3821   0.5181

          k = 0.1500 0.4330 0.0000 ( 43865 PWs)   bands (ev):

    -8.3938  -8.3707  -8.3398  -8.2995  -8.2531  -8.2041  -8.1617  -8.1307
    -8.1114  -6.8959  -6.8677  -6.8374  -6.7974  -6.7512  -6.7025  -6.6608
    -6.6306  -6.6116  -6.0047  -5.9752  -5.9453  -5.9056  -5.8598  -5.8117
    -5.7706  -5.7409  -5.7222  -3.7257  -3.3640  -3.3403  -3.3051  -3.2616
    -3.2154  -3.1754  -3.1580  -3.1418  -3.1272  -2.6704  -2.5173  -2.2819
    -1.9833  -1.6849  -1.5787  -1.5553  -1.5307  -1.4960  -1.4540  -1.4112
    -1.4034  -1.3691  -1.3405  -1.3264  -1.2722  -1.1966  -1.0495  -0.9702
    -0.8195  -0.7462  -0.5410  -0.3821  -0.3054  -0.1697  -0.1354   0.0714
     0.1589   0.3478

          k = 0.1500 0.4907 0.0000 ( 43839 PWs)   bands (ev):

    -8.1537  -8.1291  -8.0984  -8.0581  -8.0116  -7.9625  -7.9202  -7.8893
    -7.8700  -7.2506  -7.2261  -7.1957  -7.1556  -7.1095  -7.0609  -7.0191
    -6.9887  -6.9696  -6.0642  -6.0344  -6.0045  -5.9648  -5.9190  -5.8708
    -5.8296  -5.7998  -5.7810  -3.7085  -3.4157  -3.3910  -3.3549  -3.3104
    -3.2633  -3.2236  -3.1988  -3.1818  -3.1252  -2.4362  -2.2878  -2.0608
    -1.7909  -1.6145  -1.5388  -1.3960  -1.3532  -1.1633  -1.0782  -1.0614
    -1.0435  -1.0367  -1.0070  -0.9724  -0.9337  -0.9004  -0.8776  -0.8628
    -0.8502  -0.7536  -0.5694  -0.5109  -0.4604  -0.3677  -0.2144  -0.1801
     0.0102   0.1082

          k = 0.1500 0.5485 0.0000 ( 43834 PWs)   bands (ev):

    -7.8884  -7.8586  -7.8282  -7.7879  -7.7411  -7.6917  -7.6492  -7.6183
    -7.5992  -7.5734  -7.5544  -7.5240  -7.4844  -7.4388  -7.3904  -7.3485
    -7.3180  -7.2989  -6.0938  -6.0640  -6.0341  -5.9944  -5.9486  -5.9003
    -5.8591  -5.8293  -5.8106  -3.7043  -3.4421  -3.4170  -3.3804  -3.3356
    -3.2883  -3.2488  -3.2232  -3.2060  -3.1064  -2.1744  -2.0389  -1.8954
    -1.8439  -1.7440  -1.6423  -1.4806  -1.3985  -1.1645  -1.1030  -0.8318
    -0.7884  -0.7006  -0.6196  -0.6028  -0.5791  -0.5512  -0.5305  -0.5126
    -0.4948  -0.4875  -0.4738  -0.4656  -0.4606  -0.3983  -0.2763  -0.2392
    -0.1945  -0.0218

          k = 0.2000 0.3464 0.0000 ( 43889 PWs)   bands (ev):

    -8.6198  -8.5976  -8.5667  -8.5264  -8.4800  -8.4310  -8.3886  -8.3575
    -8.3382  -6.2908  -6.2047  -6.1999  -6.1851  -6.1715  -6.1535  -6.1313
    -6.1150  -6.0837  -6.0752  -6.0344  -6.0315  -5.9925  -5.9921  -5.9628
    -5.9623  -5.9440  -5.9439  -3.7285  -2.8962  -2.8872  -2.8821  -2.8724
    -2.8577  -2.8430  -2.8267  -2.8093  -2.7958  -2.7891  -2.7266  -2.5023
    -2.3534  -2.3371  -2.3128  -2.2842  -2.2550  -2.2287  -2.2151  -2.2054
    -2.1972  -2.1630  -1.8301  -1.4993  -1.4042  -1.1494  -0.9464  -0.5598
    -0.5420  -0.4549  -0.3934  -0.2863  -0.1645  -0.0678   0.1258   0.1885
     0.4472   0.4720

          k = 0.2000 0.4041 0.0000 ( 43892 PWs)   bands (ev):

    -8.4238  -8.4009  -8.3700  -8.3297  -8.2833  -8.2343  -8.1919  -8.1609
    -8.1417  -6.6365  -6.6000  -6.5704  -6.5304  -6.4839  -6.4350  -6.3930
    -6.3628  -6.3441  -6.3199  -6.2997  -6.2696  -6.2304  -6.1851  -6.1372
    -6.0960  -6.0661  -6.0474  -3.6443  -2.8662  -2.8486  -2.8225  -2.7920
    -2.7666  -2.7406  -2.7149  -2.6986  -2.6926  -2.6845  -2.5450  -2.3139
    -2.0848  -2.0664  -2.0421  -2.0115  -1.9780  -1.9592  -1.9346  -1.9050
    -1.8831  -1.8680  -1.6477  -1.4325  -1.2985  -0.9952  -0.9378  -0.8073
    -0.7695  -0.6646  -0.6106  -0.5140  -0.4169  -0.2538  -0.1813   0.0544
     0.1041   0.3771

          k = 0.2000 0.4619 0.0000 ( 43839 PWs)   bands (ev):

    -8.1985  -8.1743  -8.1436  -8.1032  -8.0568  -8.0077  -7.9654  -7.9345
    -7.9153  -7.0003  -6.9723  -6.9421  -6.9020  -6.8557  -6.8069  -6.7651
    -6.7349  -6.7159  -6.3994  -6.3750  -6.3448  -6.3052  -6.2595  -6.2113
    -6.1701  -6.1401  -6.1214  -3.5790  -2.9060  -2.8848  -2.8531  -2.8141
    -2.7772  -2.7538  -2.7271  -2.7025  -2.6880  -2.4796  -2.3298  -2.1004
    -1.8208  -1.6538  -1.6394  -1.6152  -1.5828  -1.5438  -1.5026  -1.4896
    -1.4646  -1.4389  -1.4259  -1.3903  -1.2968  -1.1480  -1.0855  -0.9349
    -0.7922  -0.7509  -0.6900  -0.5858  -0.5631  -0.5020  -0.3031  -0.2498
    -0.0144   0.0596

          k = 0.2000 0.5196 0.0000 ( 43840 PWs)   bands (ev):

    -7.9451  -7.9183  -7.8877  -7.8473  -7.8007  -7.7516  -7.7093  -7.6785
    -7.6593  -7.3389  -7.3158  -7.2853  -7.2453  -7.1993  -7.1506  -7.1088
    -7.0784  -7.0593  -6.4452  -6.4198  -6.3896  -6.3499  -6.3041  -6.2559
    -6.2146  -6.1846  -6.1658  -3.5384  -2.9374  -2.9149  -2.8811  -2.8393
    -2.7954  -2.7671  -2.7515  -2.7244  -2.7087  -2.2316  -2.0886  -1.8762
    -1.6814  -1.6238  -1.5079  -1.4282  -1.2497  -1.1807  -1.1644  -1.1592
    -1.1407  -1.1132  -1.0828  -1.0477  -1.0171  -0.9954  -0.9825  -0.9490
    -0.8435  -0.8091  -0.7361  -0.6003  -0.5739  -0.5357  -0.3571  -0.3160
    -0.2668  -0.0651

          k = 0.2000 0.5774 0.0000 ( 43846 PWs)   bands (ev):

    -7.7066  -7.6398  -7.6346  -7.6197  -7.6054  -7.5876  -7.5645  -7.5484
    -7.5163  -7.5078  -7.4664  -7.4635  -7.4238  -7.4234  -7.3934  -7.3926
    -7.3740  -7.3738  -6.4603  -6.4348  -6.4046  -6.3648  -6.3189  -6.2707
    -6.2294  -6.1994  -6.1806  -3.5248  -2.9488  -2.9258  -2.8916  -2.8489
    -2.8037  -2.7696  -2.7611  -2.7330  -2.7172  -1.9667  -1.9494  -1.8588
    -1.7983  -1.6848  -1.5630  -1.4578  -1.2620  -1.1884  -0.9431  -0.8823
    -0.8577  -0.8447  -0.8387  -0.8281  -0.8135  -0.8009  -0.7875  -0.7732
    -0.7617  -0.7533  -0.7385  -0.6025  -0.5690  -0.5622  -0.3806  -0.2834
    -0.2674  -0.1363

          k = 0.2500 0.4330 0.0000 ( 43893 PWs)   bands (ev):

    -8.2134  -8.1894  -8.1586  -8.1183  -8.0718  -8.0228  -7.9805  -7.9496
    -7.9304  -6.7672  -6.6958  -6.6908  -6.6760  -6.6620  -6.6443  -6.6214
    -6.6055  -6.5737  -6.5653  -6.5243  -6.5215  -6.4822  -6.4818  -6.4522
    -6.4516  -6.4331  -6.4330  -3.5537  -2.5047  -2.5002  -2.4992  -2.4897
    -2.4750  -2.4601  -2.4438  -2.4264  -2.4129  -2.4068  -2.3379  -2.1198
    -1.9819  -1.9651  -1.9422  -1.9160  -1.8887  -1.8636  -1.8503  -1.8417
    -1.8342  -1.7862  -1.4982  -1.3862  -1.0997  -1.0417  -1.0220  -0.9352
    -0.8704  -0.7998  -0.7638  -0.6332  -0.5764  -0.5408  -0.3305  -0.2766
     0.0053   0.0233

          k = 0.2500 0.4907 0.0000 ( 43814 PWs)   bands (ev):

    -7.9742  -7.9483  -7.9176  -7.8773  -7.8307  -7.7816  -7.7394  -7.7086
    -7.6894  -7.0769  -7.0474  -7.0173  -6.9774  -6.9309  -6.8819  -6.8399
    -6.8094  -6.7906  -6.7647  -6.7457  -6.7155  -6.6762  -6.6309  -6.5829
    -6.5415  -6.5114  -6.4925  -3.4896  -2.4422  -2.4250  -2.3994  -2.3696
    -2.3440  -2.3177  -2.2920  -2.2732  -2.2630  -2.2578  -2.1144  -1.8978
    -1.6889  -1.6751  -1.6541  -1.6266  -1.5943  -1.5700  -1.5528  -1.5250
    -1.5039  -1.4916  -1.4413  -1.3674  -1.2336  -1.1831  -1.1027  -1.0430
    -0.9466  -0.8704  -0.8506  -0.6828  -0.6137  -0.5759  -0.3750  -0.3496
    -0.3232  -0.0438

          k = 0.2500 0.5485 0.0000 ( 43847 PWs)   bands (ev):

    -7.7108  -7.6782  -7.6480  -7.6077  -7.5608  -7.5114  -7.4689  -7.4381
    -7.4190  -7.3943  -7.3747  -7.3444  -7.3048  -7.2590  -7.2105  -7.1687
    -7.1382  -7.1192  -6.7983  -6.7766  -6.7462  -6.7065  -6.6609  -6.6128
    -6.5713  -6.5411  -6.5222  -3.4559  -2.4443  -2.4246  -2.3949  -2.3589
    -2.3276  -2.3004  -2.2707  -2.2469  -2.2330  -1.9985  -1.8657  -1.7191
    -1.6718  -1.5724  -1.4689  -1.3338  -1.2849  -1.2711  -1.2510  -1.2288
    -1.2243  -1.2081  -1.1832  -1.1606  -1.1449  -1.1397  -1.1356  -1.0702
    -0.9727  -0.9291  -0.8912  -0.6896  -0.6392  -0.6113  -0.4164  -0.3453
    -0.3314  -0.3195

          k = 0.3000 0.5196 0.0000 ( 43811 PWs)   bands (ev):

    -7.7231  -7.6929  -7.6625  -7.6221  -7.5754  -7.5261  -7.4838  -7.4531
    -7.4340  -7.1545  -7.0993  -7.0940  -7.0794  -7.0647  -7.0476  -7.0241
    -7.0086  -6.9765  -6.9683  -6.9269  -6.9242  -6.8847  -6.8842  -6.8545
    -6.8538  -6.8353  -6.8351  -3.4378  -2.0366  -2.0317  -2.0225  -2.0170
    -2.0077  -1.9934  -1.9774  -1.9598  -1.9458  -1.9396  -1.8718  -1.6804
    -1.6013  -1.5850  -1.5637  -1.5427  -1.5293  -1.5163  -1.5075  -1.5044
    -1.5037  -1.4751  -1.4375  -1.4086  -1.3302  -1.2787  -1.2198  -1.1575
    -1.0155  -0.9423  -0.9326  -0.7167  -0.6660  -0.6268  -0.4166  -0.3905
    -0.3765  -0.3633

          k = 0.3000 0.5774 0.0000 ( 43826 PWs)   bands (ev):

    -7.4968  -7.4142  -7.4094  -7.3943  -7.3808  -7.3623  -7.3401  -7.3232
    -7.2920  -7.2827  -7.2418  -7.2384  -7.1988  -7.1985  -7.1685  -7.1678
    -7.1492  -7.1492  -7.1199  -7.1026  -7.0726  -7.0336  -6.9887  -6.9409
    -6.8994  -6.8691  -6.8501  -3.4205  -1.9581  -1.9426  -1.9194  -1.8924
    -1.8683  -1.8417  -1.8165  -1.7983  -1.7888  -1.7461  -1.7307  -1.6384
    -1.5903  -1.4819  -1.4749  -1.4658  -1.4626  -1.4536  -1.4495  -1.4383
    -1.4227  -1.4073  -1.3963  -1.3895  -1.3773  -1.3075  -1.2386  -1.1921
    -1.0353  -0.9705  -0.9578  -0.7185  -0.6721  -0.6655  -0.6229  -0.6093
    -0.5969  -0.5827

     the Fermi energy is    -1.0278 ev

!    total energy              =    -447.83232181 Ry
     Harris-Foulkes estimate   =    -447.83232995 Ry
     estimated scf accuracy    <       0.00003070 Ry

     The total energy is the sum of the following terms:

     one-electron contribution =   -9816.02325593 Ry
     hartree contribution      =    4926.04206647 Ry
     xc contribution           =    -355.77123904 Ry
     ewald contribution        =    4797.91732359 Ry
     smearing contrib. (-TS)   =       0.00278310 Ry

     convergence has been achieved in  62 iterations

     negative rho (up, down):  4.893E-05 0.000E+00

     Forces acting on atoms (cartesian axes, Ry/au):

     atom    1 type  1   force =     0.00000000   -0.00000000    0.00018237
     atom    2 type  1   force =    -0.00011839   -0.00006835    0.00024198
     atom    3 type  1   force =    -0.00000000    0.00013670    0.00024198
     atom    4 type  1   force =     0.00011839   -0.00006835    0.00024198
     atom    5 type  1   force =     0.00003751    0.00002166    0.00414627
     atom    6 type  1   force =     0.00000000    0.00000000    0.00418107
     atom    7 type  1   force =    -0.00003751    0.00002166    0.00414627
     atom    8 type  1   force =    -0.00000000   -0.00004331    0.00414627
     atom    9 type  1   force =    -0.00000320    0.00000185    0.00004662
     atom   10 type  1   force =     0.00000000   -0.00000370    0.00004662
     atom   11 type  1   force =     0.00000320    0.00000185    0.00004662
     atom   12 type  1   force =     0.00000000   -0.00000000    0.00004229
     atom   13 type  1   force =     0.00000000    0.00000000    0.00002019
     atom   14 type  1   force =     0.00001445    0.00000834    0.00000213
     atom   15 type  1   force =     0.00000000   -0.00001668    0.00000213
     atom   16 type  1   force =    -0.00001445    0.00000834    0.00000213
     atom   17 type  1   force =    -0.00000666   -0.00000384    0.00004254
     atom   18 type  1   force =     0.00000000    0.00000000   -0.00002274
     atom   19 type  1   force =     0.00000666   -0.00000384    0.00004254
     atom   20 type  1   force =     0.00000000    0.00000769    0.00004254
     atom   21 type  1   force =    -0.00021452    0.00012385    0.00011051
     atom   22 type  1   force =     0.00000000   -0.00024770    0.00011051
     atom   23 type  1   force =     0.00021452    0.00012385    0.00011051
     atom   24 type  1   force =     0.00000000   -0.00000000    0.00002964
     atom   25 type  1   force =     0.00000000    0.00000000    0.03988164
     atom   26 type  1   force =    -0.00002722   -0.00001571   -0.00003511
     atom   27 type  1   force =    -0.00000000    0.00003143   -0.00003511
     atom   28 type  1   force =     0.00002722   -0.00001571   -0.00003511
     atom   29 type  1   force =     0.00064916    0.00037479   -0.00004337
     atom   30 type  1   force =     0.00000000    0.00000000    0.00066974
     atom   31 type  1   force =    -0.00064916    0.00037479   -0.00004337
     atom   32 type  1   force =     0.00000000   -0.00074959   -0.00004337
     atom   33 type  1   force =     0.00013390   -0.00007731   -0.01066280
     atom   34 type  1   force =     0.00000000    0.00015462   -0.01066280
     atom   35 type  1   force =    -0.00013390   -0.00007731   -0.01066280
     atom   36 type  1   force =     0.00000000   -0.00000000   -0.00610196
     atom   37 type  2   force =     0.00000000    0.00000000   -0.02042851

     Total force =     0.049578     Total SCF correction =     0.004343


     Computing stress (Cartesian axis) and pressure


     negative rho (up, down):  4.893E-05 0.000E+00
          total   stress  (Ry/bohr**3)                   (kbar)     P=  -26.72
  -0.00022053   0.00000000   0.00000000        -32.44      0.00      0.00
  -0.00000000  -0.00022053   0.00000000         -0.00    -32.44      0.00
   0.00000000   0.00000000  -0.00010381          0.00      0.00    -15.27


     BFGS Geometry Optimization

     number of scf cycles    =   1
     number of bfgs steps    =   0

     energy   new            =    -447.8323218118 Ry

     new trust radius        =       0.0398816365 bohr
     new conv_thr            =       0.0000360000 Ry


ATOMIC_POSITIONS (crystal)
Al       0.333333492   0.166666493   0.055556652
Al       0.333318811   0.666659168   0.055557029
Al       0.833340832   0.166681174   0.055557029
Al       0.833340832   0.666659168   0.055557029
Al       0.000004651   0.000002326   0.000026239
Al       0.000000000   0.500000000   0.000026459
Al       0.499997674   0.000002326   0.000026239
Al       0.499997674   0.499995349   0.000026239
Al       0.166666294   0.333333691   0.111111459
Al       0.166666294   0.833333095   0.111111459
Al       0.666666905   0.333333691   0.111111459
Al       0.666666508   0.833333492   0.111111432
Al       0.333333492   0.166666493   0.222222292
Al       0.333335284   0.666667404   0.222222178
Al       0.833332596   0.166664701   0.222222178
Al       0.833332596   0.666667404   0.222222178
Al      -0.000000826  -0.000000413   0.166666936
Al       0.000000000   0.500000000   0.166666523
Al       0.500000413  -0.000000413   0.166666936
Al       0.500000413   0.500000826   0.166666936
Al       0.166653192   0.333346793   0.277778530
Al       0.166653192   0.833306890   0.277778530
Al       0.666693110   0.333346793   0.277778530
Al       0.666666508   0.833333492   0.277778018
Al       0.333333492   0.166666493   0.389141212
Al       0.333330117   0.666664820   0.388888609
Al       0.833335180   0.166669868   0.388888609
Al       0.833335180   0.666664820   0.388888609
Al       0.000080501   0.000040251   0.333333059
Al       0.000000000   0.500000000   0.333337572
Al       0.499959749   0.000040251   0.333333059
Al       0.499959749   0.499919499   0.333333059
Al       0.166674796   0.333325189   0.444377021
Al       0.166674796   0.833350097   0.444377021
Al       0.666649903   0.333325189   0.444377021
Al       0.666666508   0.833333492   0.444405883
H        0.333333492   0.166666493   0.416537373



     Writing output data file Al_111_3_3.save/
     NEW-OLD atomic charge density approx. for the potential

     negative rho (up, down):  5.416E-05 0.000E+00

     total cpu time spent up to now is    49915.9 secs

     Self-consistent Calculation

     iteration #  1     ecut=    30.00 Ry     beta= 0.30
     Davidson diagonalization with overlap
     c_bands:  1 eigenvalues not converged
     c_bands:  1 eigenvalues not converged
     ethr =  1.00E-06,  avg # of iterations =  9.0

     negative rho (up, down):  1.258E-04 0.000E+00

     total cpu time spent up to now is    51499.1 secs

     total energy              =    -447.83504140 Ry
     Harris-Foulkes estimate   =    -447.83615134 Ry
     estimated scf accuracy    <       0.33778105 Ry

     iteration #  2     ecut=    30.00 Ry     beta= 0.30
     Davidson diagonalization with overlap
     ethr =  3.10E-04,  avg # of iterations =  1.0

     negative rho (up, down):  5.837E-04 0.000E+00

     total cpu time spent up to now is    52258.5 secs

     total energy              =    -447.83351712 Ry
     Harris-Foulkes estimate   =    -447.83521171 Ry
     estimated scf accuracy    <       0.16147408 Ry

     iteration #  3     ecut=    30.00 Ry     beta= 0.30
     Davidson diagonalization with overlap
     ethr =  1.48E-04,  avg # of iterations =  1.0

     negative rho (up, down):  7.301E-04 0.000E+00

     total cpu time spent up to now is    53029.7 secs

     total energy              =    -447.83435103 Ry
     Harris-Foulkes estimate   =    -447.83435338 Ry
     estimated scf accuracy    <       0.00014867 Ry

     iteration #  4     ecut=    30.00 Ry     beta= 0.30
     Davidson diagonalization with overlap
     c_bands:  2 eigenvalues not converged
     c_bands:  1 eigenvalues not converged
     c_bands:  1 eigenvalues not converged
     c_bands:  1 eigenvalues not converged
     ethr =  1.36E-07,  avg # of iterations = 10.9

     negative rho (up, down):  7.236E-04 0.000E+00

     total cpu time spent up to now is    54131.7 secs

     total energy              =    -447.83503920 Ry
     Harris-Foulkes estimate   =    -447.83514556 Ry
     estimated scf accuracy    <       0.06378136 Ry

     iteration #  5     ecut=    30.00 Ry     beta= 0.30
     Davidson diagonalization with overlap
     ethr =  1.36E-07,  avg # of iterations =  3.0

     negative rho (up, down):  8.268E-04 0.000E+00

     total cpu time spent up to now is    54937.4 secs

     total energy              =    -447.83501821 Ry
     Harris-Foulkes estimate   =    -447.83504898 Ry
     estimated scf accuracy    <       0.04100931 Ry

     iteration #  6     ecut=    30.00 Ry     beta= 0.30
     Davidson diagonalization with overlap
     ethr =  1.36E-07,  avg # of iterations =  1.4

     negative rho (up, down):  9.011E-04 0.000E+00

     total cpu time spent up to now is    55703.0 secs

     total energy              =    -447.83489285 Ry
     Harris-Foulkes estimate   =    -447.83501985 Ry
     estimated scf accuracy    <       0.03769336 Ry

     iteration #  7     ecut=    30.00 Ry     beta= 0.30
     Davidson diagonalization with overlap
     ethr =  1.36E-07,  avg # of iterations =  4.1

     negative rho (up, down):  9.095E-04 0.000E+00

     total cpu time spent up to now is    56514.5 secs

     total energy              =    -447.83492708 Ry
     Harris-Foulkes estimate   =    -447.83492066 Ry
     estimated scf accuracy    <       0.01416804 Ry

     iteration #  8     ecut=    30.00 Ry     beta= 0.30
     Davidson diagonalization with overlap
     ethr =  1.36E-07,  avg # of iterations =  1.0

     negative rho (up, down):  8.741E-04 0.000E+00

     total cpu time spent up to now is    57307.9 secs

     total energy              =    -447.83483093 Ry
     Harris-Foulkes estimate   =    -447.83492730 Ry
     estimated scf accuracy    <       0.01518711 Ry

     iteration #  9     ecut=    30.00 Ry     beta= 0.30
     Davidson diagonalization with overlap
     ethr =  1.36E-07,  avg # of iterations =  4.2

     negative rho (up, down):  8.967E-04 0.000E+00

     total cpu time spent up to now is    58166.8 secs

     total energy              =    -447.83481389 Ry
     Harris-Foulkes estimate   =    -447.83486145 Ry
     estimated scf accuracy    <       0.00135444 Ry

     iteration # 10     ecut=    30.00 Ry     beta= 0.30
     Davidson diagonalization with overlap
     ethr =  1.36E-07,  avg # of iterations =  5.4

     negative rho (up, down):  8.910E-04 0.000E+00

     total cpu time spent up to now is    59044.5 secs

     total energy              =    -447.83488015 Ry
     Harris-Foulkes estimate   =    -447.83490056 Ry
     estimated scf accuracy    <       0.01148123 Ry

     iteration # 11     ecut=    30.00 Ry     beta= 0.30
     Davidson diagonalization with overlap
     ethr =  1.36E-07,  avg # of iterations =  1.0

     negative rho (up, down):  8.519E-04 0.000E+00

     total cpu time spent up to now is    59814.7 secs

     total energy              =    -447.83488615 Ry
     Harris-Foulkes estimate   =    -447.83488167 Ry
     estimated scf accuracy    <       0.00863185 Ry

     iteration # 12     ecut=    30.00 Ry     beta= 0.30
     Davidson diagonalization with overlap
     ethr =  1.36E-07,  avg # of iterations =  1.0

     negative rho (up, down):  7.089E-04 0.000E+00

     total cpu time spent up to now is    60664.6 secs

     total energy              =    -447.83477560 Ry
     Harris-Foulkes estimate   =    -447.83488664 Ry
     estimated scf accuracy    <       0.01002047 Ry

     iteration # 13     ecut=    30.00 Ry     beta= 0.30
     Davidson diagonalization with overlap
     ethr =  1.36E-07,  avg # of iterations =  4.4

     negative rho (up, down):  7.794E-04 0.000E+00

     total cpu time spent up to now is    61664.2 secs

     total energy              =    -447.83484848 Ry
     Harris-Foulkes estimate   =    -447.83486232 Ry
     estimated scf accuracy    <       0.00159458 Ry

     iteration # 14     ecut=    30.00 Ry     beta= 0.30
     Davidson diagonalization with overlap
     ethr =  1.36E-07,  avg # of iterations =  1.3

     negative rho (up, down):  7.377E-04 0.000E+00

     total cpu time spent up to now is    62485.1 secs

     total energy              =    -447.83485528 Ry
     Harris-Foulkes estimate   =    -447.83485185 Ry
     estimated scf accuracy    <       0.00058004 Ry

     iteration # 15     ecut=    30.00 Ry     beta= 0.30
     Davidson diagonalization with overlap
     ethr =  1.36E-07,  avg # of iterations =  1.0

     negative rho (up, down):  6.832E-04 0.000E+00

     total cpu time spent up to now is    63291.2 secs

     total energy              =    -447.83484259 Ry
     Harris-Foulkes estimate   =    -447.83485610 Ry
     estimated scf accuracy    <       0.00114758 Ry

     iteration # 16     ecut=    30.00 Ry     beta= 0.30
[...]
    -0.2278  -0.0783

          k = 0.2500 0.4330 0.0000 ( 43893 PWs)   bands (ev):

    -8.2049  -8.1592  -8.1296  -8.0877  -8.0384  -7.9874  -7.9445  -7.9161
    -7.8977  -6.7959  -6.6625  -6.6584  -6.6435  -6.6305  -6.6140  -6.5895
    -6.5767  -6.5398  -6.5337  -6.4891  -6.4871  -6.4476  -6.4451  -6.4207
    -6.4167  -6.4012  -6.3991  -3.7958  -2.4711  -2.4670  -2.4651  -2.4561
    -2.4427  -2.4286  -2.4117  -2.3931  -2.3790  -2.3723  -2.3093  -2.0836
    -1.9468  -1.9258  -1.8995  -1.8792  -1.8556  -1.8299  -1.8132  -1.8076
    -1.8011  -1.7540  -1.5148  -1.3615  -1.0536  -1.0112  -0.9891  -0.9105
    -0.8398  -0.7612  -0.7432  -0.5951  -0.5408  -0.5186  -0.2797  -0.2468
     0.0584   0.0620

          k = 0.2500 0.4907 0.0000 ( 43814 PWs)   bands (ev):

    -7.9698  -7.9179  -7.8884  -7.8466  -7.7972  -7.7462  -7.7034  -7.6753
    -7.6568  -7.0787  -7.0165  -6.9877  -6.9464  -6.8973  -6.8464  -6.8042
    -6.7787  -6.7597  -6.7426  -6.7159  -6.6863  -6.6454  -6.5973  -6.5477
    -6.5060  -6.4784  -6.4599  -3.7437  -2.4085  -2.3902  -2.3632  -2.3348
    -2.3142  -2.2860  -2.2575  -2.2378  -2.2289  -2.2260  -2.0838  -1.8662
    -1.6473  -1.6404  -1.6244  -1.5965  -1.5660  -1.5482  -1.5200  -1.4893
    -1.4681  -1.4575  -1.4273  -1.3400  -1.2038  -1.1411  -1.0742  -1.0187
    -0.9151  -0.8323  -0.8219  -0.6441  -0.5866  -0.5387  -0.3383  -0.3101
    -0.2830  -0.0047

          k = 0.2500 0.5485 0.0000 ( 43847 PWs)   bands (ev):

    -7.7184  -7.6472  -7.6184  -7.5768  -7.5272  -7.4759  -7.4330  -7.4073
    -7.3886  -7.3733  -7.3449  -7.3153  -7.2741  -7.2255  -7.1752  -7.1329
    -7.1051  -7.0866  -6.7846  -6.7465  -6.7170  -6.6757  -6.6274  -6.5775
    -6.5358  -6.5082  -6.4896  -3.7167  -2.4107  -2.3899  -2.3583  -2.3220
    -2.2986  -2.2699  -2.2349  -2.2095  -2.1969  -1.9664  -1.8382  -1.6955
    -1.6475  -1.5393  -1.4528  -1.2985  -1.2515  -1.2375  -1.2186  -1.2018
    -1.1943  -1.1767  -1.1497  -1.1280  -1.1195  -1.1062  -1.0951  -1.0486
    -0.9317  -0.8880  -0.8716  -0.6629  -0.5999  -0.5690  -0.3876  -0.3262
    -0.2942  -0.2782

          k = 0.3000 0.5196 0.0000 ( 43811 PWs)   bands (ev):

    -7.7270  -7.6621  -7.6330  -7.5913  -7.5418  -7.4906  -7.4479  -7.4204
    -7.4016  -7.1660  -7.0660  -7.0617  -7.0469  -7.0335  -7.0172  -6.9923
    -6.9799  -6.9426  -6.9366  -6.8918  -6.8898  -6.8501  -6.8474  -6.8223
    -6.8189  -6.8032  -6.8013  -3.7003  -2.0031  -1.9987  -1.9900  -1.9829
    -1.9759  -1.9627  -1.9455  -1.9268  -1.9130  -1.9067  -1.8434  -1.6563
    -1.5677  -1.5506  -1.5280  -1.5076  -1.4970  -1.4840  -1.4780  -1.4737
    -1.4709  -1.4429  -1.4060  -1.3798  -1.3037  -1.2386  -1.1973  -1.1355
    -0.9787  -0.9102  -0.8995  -0.6724  -0.6363  -0.5837  -0.3924  -0.3595
    -0.3350  -0.3292

          k = 0.3000 0.5774 0.0000 ( 43826 PWs)   bands (ev):

    -7.5343  -7.3809  -7.3769  -7.3619  -7.3493  -7.3320  -7.3081  -7.2945
    -7.2579  -7.2512  -7.2061  -7.2044  -7.1643  -7.1614  -7.1378  -7.1330
    -7.1182  -7.1153  -7.0936  -7.0733  -7.0435  -7.0030  -6.9553  -6.9057
    -6.8637  -6.8357  -6.8173  -3.6859  -1.9245  -1.9084  -1.8849  -1.8608
    -1.8381  -1.8099  -1.7838  -1.7663  -1.7563  -1.7193  -1.6970  -1.6242
    -1.5560  -1.4717  -1.4476  -1.4389  -1.4259  -1.4229  -1.4101  -1.4023
    -1.3885  -1.3705  -1.3601  -1.3574  -1.3379  -1.2710  -1.2104  -1.1723
    -0.9874  -0.9411  -0.9328  -0.6728  -0.6413  -0.6305  -0.5814  -0.5749
    -0.5637  -0.5498

     the Fermi energy is    -0.9950 ev

!    total energy              =    -447.85975262 Ry
     Harris-Foulkes estimate   =    -447.85975779 Ry
     estimated scf accuracy    <       0.00000547 Ry

     The total energy is the sum of the following terms:

     one-electron contribution =   -9825.33739020 Ry
     hartree contribution      =    4930.59310275 Ry
     xc contribution           =    -355.80727912 Ry
     ewald contribution        =    4802.68986747 Ry
     smearing contrib. (-TS)   =       0.00194648 Ry

     convergence has been achieved in  26 iterations

     negative rho (up, down):  5.259E-05 0.000E+00

     Forces acting on atoms (cartesian axes, Ry/au):

     atom    1 type  1   force =     0.00000000    0.00000000    0.00007117
     atom    2 type  1   force =    -0.00001354   -0.00000782    0.00014439
     atom    3 type  1   force =     0.00000000    0.00001564    0.00014439
     atom    4 type  1   force =     0.00001354   -0.00000782    0.00014439
     atom    5 type  1   force =     0.00003252    0.00001878    0.00428079
     atom    6 type  1   force =     0.00000000    0.00000000    0.00422160
     atom    7 type  1   force =    -0.00003252    0.00001878    0.00428079
     atom    8 type  1   force =    -0.00000000   -0.00003756    0.00428079
     atom    9 type  1   force =     0.00001115   -0.00000644    0.00001694
     atom   10 type  1   force =     0.00000000    0.00001287    0.00001694
     atom   11 type  1   force =    -0.00001115   -0.00000644    0.00001694
     atom   12 type  1   force =     0.00000000    0.00000000    0.00001626
     atom   13 type  1   force =     0.00000000   -0.00000000   -0.00000017
     atom   14 type  1   force =     0.00000050    0.00000029    0.00003668
     atom   15 type  1   force =     0.00000000   -0.00000058    0.00003668
     atom   16 type  1   force =    -0.00000050    0.00000029    0.00003668
     atom   17 type  1   force =    -0.00000581   -0.00000335    0.00000658
     atom   18 type  1   force =     0.00000000    0.00000000    0.00001114
     atom   19 type  1   force =     0.00000581   -0.00000335    0.00000658
     atom   20 type  1   force =     0.00000000    0.00000671    0.00000658
     atom   21 type  1   force =    -0.00011028    0.00006367    0.00016928
     atom   22 type  1   force =     0.00000000   -0.00012734    0.00016928
     atom   23 type  1   force =     0.00011028    0.00006367    0.00016928
     atom   24 type  1   force =     0.00000000   -0.00000000    0.00002868
     atom   25 type  1   force =     0.00000000   -0.00000000    0.05102687
     atom   26 type  1   force =    -0.00004790   -0.00002765   -0.00127762
     atom   27 type  1   force =     0.00000000    0.00005530   -0.00127762
     atom   28 type  1   force =     0.00004790   -0.00002765   -0.00127762
     atom   29 type  1   force =     0.00020050    0.00011576   -0.00038668
     atom   30 type  1   force =     0.00000000    0.00000000    0.00088735
     atom   31 type  1   force =    -0.00020050    0.00011576   -0.00038668
     atom   32 type  1   force =    -0.00000000   -0.00023151   -0.00038668
     atom   33 type  1   force =    -0.00168113    0.00097060   -0.00840970
     atom   34 type  1   force =    -0.00000000   -0.00194120   -0.00840970
     atom   35 type  1   force =     0.00168113    0.00097060   -0.00840970
     atom   36 type  1   force =     0.00000000   -0.00000000   -0.00543238
     atom   37 type  2   force =     0.00000000    0.00000000   -0.03457253

     Total force =     0.064275     Total SCF correction =     0.002736


     Computing stress (Cartesian axis) and pressure


     negative rho (up, down):  5.259E-05 0.000E+00
          total   stress  (Ry/bohr**3)                   (kbar)     P=  -26.56
  -0.00021984   0.00000000   0.00000000        -32.34      0.00      0.00
   0.00000000  -0.00021984  -0.00000000          0.00    -32.34     -0.00
   0.00000000  -0.00000000  -0.00010196          0.00     -0.00    -15.00


     number of scf cycles    =   9
     number of bfgs steps    =   8

     energy   old            =    -447.8553763208 Ry
     energy   new            =    -447.8597526187 Ry

     CASE: energy  _new < energy  _old


     WARNING: bfgs curvature condition failed, Theta= 0.552
     uphill step: resetting bfgs history

     new trust radius        =       0.0510268735 bohr
     new conv_thr            =       0.0000157547 Ry


ATOMIC_POSITIONS (crystal)
Al       0.333333492   0.166666493   0.055563644
Al       0.333262561   0.666631042   0.055568280
Al       0.833368958   0.166737424   0.055568280
Al       0.833368958   0.666631042   0.055568280
Al       0.000037371   0.000018685   0.000255732
Al       0.000000000   0.500000000   0.000254445
Al       0.499981315   0.000018685   0.000255732
Al       0.499981315   0.499962629   0.000255732
Al       0.166670058   0.333329927   0.111113262
Al       0.166670058   0.833340623   0.111113262
Al       0.666659377   0.333329927   0.111113262
Al       0.666666508   0.833333492   0.111113025
Al       0.333333492   0.166666493   0.222222595
Al       0.333341431   0.666670477   0.222223020
Al       0.833329523   0.166658554   0.222223020
Al       0.833329523   0.666670477   0.222223020
Al      -0.000012781  -0.000006391   0.166668190
Al       0.000000000   0.500000000   0.166666359
Al       0.500006391  -0.000006391   0.166668190
Al       0.500006391   0.500012781   0.166668190
Al       0.166569213   0.333430772   0.277785763
Al       0.166569213   0.833138932   0.277785763
Al       0.666861068   0.333430772   0.277785763
Al       0.666666508   0.833333492   0.277779299
Al       0.333333492   0.166666493   0.391600503
Al       0.333301285   0.666650405   0.388863850
Al       0.833349595   0.166698700   0.388863850
Al       0.833349595   0.666650405   0.388863850
Al       0.000522966   0.000261483   0.333323145
Al       0.000000000   0.500000000   0.333378797
Al       0.499738517   0.000261483   0.333323145
Al       0.499738517   0.499477034   0.333323145
Al       0.166290362   0.333709623   0.443837696
Al       0.166290362   0.832581229   0.443837696
Al       0.667418771   0.333709623   0.443837696
Al       0.666666508   0.833333492   0.444087637
H        0.333333492   0.166666493   0.415083474



     Writing output data file Al_111_3_3.save/
     NEW-OLD atomic charge density approx. for the potential

     negative rho (up, down):  6.287E-05 0.000E+00

     total cpu time spent up to now is   227093.7 secs

     Self-consistent Calculation

     iteration #  1     ecut=    30.00 Ry     beta= 0.30
     Davidson diagonalization with overlap
     c_bands:  1 eigenvalues not converged
     c_bands:  3 eigenvalues not converged
     c_bands:  1 eigenvalues not converged
     c_bands:  2 eigenvalues not converged
     ethr =  1.00E-06,  avg # of iterations = 11.3

     negative rho (up, down):  5.282E-05 0.000E+00

     total cpu time spent up to now is   229278.5 secs

     total energy              =    -447.86406237 Ry
     Harris-Foulkes estimate   =    -447.86624000 Ry
     estimated scf accuracy    <       1.00232341 Ry

     iteration #  2     ecut=    30.00 Ry     beta= 0.30
     Davidson diagonalization with overlap
     ethr =  9.20E-04,  avg # of iterations =  1.0

     negative rho (up, down):  8.038E-05 0.000E+00

     total cpu time spent up to now is   230365.1 secs

     total energy              =    -447.86138075 Ry
     Harris-Foulkes estimate   =    -447.86441223 Ry
     estimated scf accuracy    <       0.45522507 Ry

     iteration #  3     ecut=    30.00 Ry     beta= 0.30
     Davidson diagonalization with overlap
     ethr =  4.18E-04,  avg # of iterations =  1.0

     negative rho (up, down):  8.685E-05 0.000E+00

     total cpu time spent up to now is   231408.0 secs

     total energy              =    -447.86284134 Ry
     Harris-Foulkes estimate   =    -447.86284657 Ry
     estimated scf accuracy    <       0.00051994 Ry

     iteration #  4     ecut=    30.00 Ry     beta= 0.30
     Davidson diagonalization with overlap
     c_bands:  2 eigenvalues not converged
     c_bands:  1 eigenvalues not converged
     c_bands:  2 eigenvalues not converged
     c_bands:  1 eigenvalues not converged
     c_bands:  1 eigenvalues not converged
     c_bands:  1 eigenvalues not converged
     c_bands:  2 eigenvalues not converged
     c_bands:  2 eigenvalues not converged
     c_bands:  1 eigenvalues not converged
     c_bands:  1 eigenvalues not converged
     ethr =  4.77E-07,  avg # of iterations = 13.7

     negative rho (up, down):  9.391E-05 0.000E+00

     total cpu time spent up to now is   233002.4 secs

     total energy              =    -447.86423177 Ry
     Harris-Foulkes estimate   =    -447.86449745 Ry
     estimated scf accuracy    <       0.23709052 Ry

     iteration #  5     ecut=    30.00 Ry     beta= 0.30
     Davidson diagonalization with overlap
     ethr =  4.77E-07,  avg # of iterations =  3.4

     negative rho (up, down):  1.027E-04 0.000E+00

     total cpu time spent up to now is   234170.5 secs

     total energy              =    -447.86438538 Ry
     Harris-Foulkes estimate   =    -447.86426204 Ry
     estimated scf accuracy    <       0.14238562 Ry

     iteration #  6     ecut=    30.00 Ry     beta= 0.30
     Davidson diagonalization with overlap
     ethr =  4.77E-07,  avg # of iterations =  1.1

     negative rho (up, down):  1.048E-04 0.000E+00

     total cpu time spent up to now is   235337.6 secs

     total energy              =    -447.86422247 Ry
     Harris-Foulkes estimate   =    -447.86439375 Ry
     estimated scf accuracy    <       0.18107961 Ry

     iteration #  7     ecut=    30.00 Ry     beta= 0.30
     Davidson diagonalization with overlap
     ethr =  4.77E-07,  avg # of iterations =  1.0

     negative rho (up, down):  1.011E-04 0.000E+00

     total cpu time spent up to now is   236486.9 secs

     total energy              =    -447.86412884 Ry
     Harris-Foulkes estimate   =    -447.86423235 Ry
     estimated scf accuracy    <       0.14060317 Ry

     iteration #  8     ecut=    30.00 Ry     beta= 0.30
     Davidson diagonalization with overlap
     ethr =  4.77E-07,  avg # of iterations =  1.0

     negative rho (up, down):  7.142E-05 0.000E+00

     total cpu time spent up to now is   237538.8 secs

     total energy              =    -447.86381409 Ry
     Harris-Foulkes estimate   =    -447.86413346 Ry
     estimated scf accuracy    <       0.11907313 Ry

     iteration #  9     ecut=    30.00 Ry     beta= 0.30
     Davidson diagonalization with overlap
     c_bands:  1 eigenvalues not converged
     ethr =  4.77E-07,  avg # of iterations =  4.1

     negative rho (up, down):  7.202E-05 0.000E+00

     total cpu time spent up to now is   238640.9 secs

     total energy              =    -447.86393150 Ry
     Harris-Foulkes estimate   =    -447.86392532 Ry
     estimated scf accuracy    <       0.01955126 Ry

     iteration # 10     ecut=    30.00 Ry     beta= 0.30
     Davidson diagonalization with overlap
     ethr =  4.77E-07,  avg # of iterations =  1.0

     negative rho (up, down):  6.976E-05 0.000E+00

     total cpu time spent up to now is   239703.9 secs

     total energy              =    -447.86392631 Ry
     Harris-Foulkes estimate   =    -447.86393186 Ry
     estimated scf accuracy    <       0.02117829 Ry

     iteration # 11     ecut=    30.00 Ry     beta= 0.30
     Davidson diagonalization with overlap
     ethr =  4.77E-07,  avg # of iterations =  1.0

     negative rho (up, down):  4.726E-05 0.000E+00

     total cpu time spent up to now is   240757.7 secs

     total energy              =    -447.86385693 Ry
     Harris-Foulkes estimate   =    -447.86392650 Ry
     estimated scf accuracy    <       0.01963423 Ry

     iteration # 12     ecut=    30.00 Ry     beta= 0.30
     Davidson diagonalization with overlap
     ethr =  4.77E-07,  avg # of iterations =  2.3

     negative rho (up, down):  2.515E-05 0.000E+00

     total cpu time spent up to now is   241835.3 secs

     total energy              =    -447.86385533 Ry
     Harris-Foulkes estimate   =    -447.86388091 Ry
     estimated scf accuracy    <       0.00185950 Ry

     iteration # 13     ecut=    30.00 Ry     beta= 0.30
     Davidson diagonalization with overlap
     c_bands:  1 eigenvalues not converged
     ethr =  4.77E-07,  avg # of iterations =  4.3

     negative rho (up, down):  2.924E-05 0.000E+00

     total cpu time spent up to now is   242935.6 secs

     total energy              =    -447.86389386 Ry
     Harris-Foulkes estimate   =    -447.86390292 Ry
     estimated scf accuracy    <       0.00938564 Ry

     iteration # 14     ecut=    30.00 Ry     beta= 0.30
     Davidson diagonalization with overlap
     c_bands:  1 eigenvalues not converged
     ethr =  4.77E-07,  avg # of iterations =  1.4

     negative rho (up, down):  3.222E-05 0.000E+00

     total cpu time spent up to now is   243983.8 secs

     total energy              =    -447.86388061 Ry
     Harris-Foulkes estimate   =    -447.86389483 Ry
     estimated scf accuracy    <       0.00696900 Ry

     iteration # 15     ecut=    30.00 Ry     beta= 0.30
     Davidson diagonalization with overlap
     ethr =  4.77E-07,  avg # of iterations =  1.0

     negative rho (up, down):  3.447E-05 0.000E+00

     total cpu time spent up to now is   245037.2 secs

     total energy              =    -447.86387319 Ry
     Harris-Foulkes estimate   =    -447.86388237 Ry
     estimated scf accuracy    <       0.00398143 Ry

     iteration # 16     ecut=    30.00 Ry     beta= 0.30
     Davidson diagonalization with overlap
     ethr =  4.77E-07,  avg # of iterations =  1.0

     negative rho (up, down):  3.384E-05 0.000E+00

     total cpu time spent up to now is   246145.6 secs

     total energy              =    -447.86388031 Ry
     Harris-Foulkes estimate   =    -447.86387455 Ry
     estimated scf accuracy    <       0.00222159 Ry

     iteration # 17     ecut=    30.00 Ry     beta= 0.30
     Davidson diagonalization with overlap
     ethr =  4.77E-07,  avg # of iterations =  1.0

     negative rho (up, down):  3.251E-05 0.000E+00

     total cpu time spent up to now is   247272.2 secs

     total energy              =    -447.86385709 Ry
     Harris-Foulkes estimate   =    -447.86388132 Ry
     estimated scf accuracy    <       0.00378158 Ry

     iteration # 18     ecut=    30.00 Ry     beta= 0.30
     Davidson diagonalization with overlap
     ethr =  4.77E-07,  avg # of iterations =  3.1

     negative rho (up, down):  3.001E-05 0.000E+00

     total cpu time spent up to now is   248389.2 secs

     total energy              =    -447.86388799 Ry
     Harris-Foulkes estimate   =    -447.86388550 Ry
     estimated scf accuracy    <       0.00140731 Ry

     iteration # 19     ecut=    30.00 Ry     beta= 0.30
     Davidson diagonalization with overlap
     ethr =  4.77E-07,  avg # of iterations =  1.0

     negative rho (up, down):  2.903E-05 0.000E+00

     total cpu time spent up to now is   249434.1 secs

     total energy              =    -447.86388830 Ry
     Harris-Foulkes estimate   =    -447.86388858 Ry
     estimated scf accuracy    <       0.00223579 Ry

     iteration # 20     ecut=    30.00 Ry     beta= 0.30
     Davidson diagonalization with overlap
     ethr =  4.77E-07,  avg # of iterations =  1.0

     negative rho (up, down):  2.861E-05 0.000E+00

     total cpu time spent up to now is   250488.5 secs

     total energy              =    -447.86388712 Ry
     Harris-Foulkes estimate   =    -447.86388839 Ry
     estimated scf accuracy    <       0.00215581 Ry

     iteration # 21     ecut=    30.00 Ry     beta= 0.30
     Davidson diagonalization with overlap
     ethr =  4.77E-07,  avg # of iterations =  1.0

     negative rho (up, down):  3.125E-05 0.000E+00

     total cpu time spent up to now is   251547.3 secs

     total energy              =    -447.86388155 Ry
     Harris-Foulkes estimate   =    -447.86388719 Ry
     estimated scf accuracy    <       0.00192930 Ry

     iteration # 22     ecut=    30.00 Ry     beta= 0.30
     Davidson diagonalization with overlap
     ethr =  4.77E-07,  avg # of iterations =  1.0

     negative rho (up, down):  2.941E-05 0.000E+00

     total cpu time spent up to now is   252656.8 secs

     total energy              =    -447.86387865 Ry
     Harris-Foulkes estimate   =    -447.86388241 Ry
     estimated scf accuracy    <       0.00093828 Ry

     iteration # 23     ecut=    30.00 Ry     beta= 0.30
