
     Program PWSCF v.6.4.1 starts on  3Jun2020 at 17:49: 1 

     This program is part of the open-source Quantum ESPRESSO suite
     for quantum simulation of materials; please cite
         "P. Giannozzi et al., J. Phys.:Condens. Matter 21 395502 (2009);
         "P. Giannozzi et al., J. Phys.:Condens. Matter 29 465901 (2017);
          URL http://www.quantum-espresso.org", 
     in publications or presentations arising from this work. More details at
     http://www.quantum-espresso.org/quote

     Parallel version (MPI & OpenMP), running on       1 processor cores
     Number of MPI processes:                 1
     Threads/MPI process:                     1

     MPI processes distributed on     1 nodes
     Reading input from Al_111_H_site_et2.pw.in

     Current dimensions of program PWSCF are:
     Max number of different atomic species (ntypx) = 10
     Max number of k-points (npk) =  40000
     Max angular momentum in pseudopotentials (lmaxx) =  3
               file H.pbe-rrkjus.UPF: wavefunction(s)  1S renormalized

     Subspace diagonalization in iterative solution of the eigenvalue problem:
     a serial algorithm will be used

 
     G-vector sticks info
     --------------------
     sticks:   dense  smooth     PW     G-vecs:    dense   smooth      PW
     Sum        2713    2161    583              1657165  1184975  170179
 


     bravais-lattice index     =            4
     lattice parameter (alat)  =      16.1280  a.u.
     unit-cell volume          =   53394.8108 (a.u.)^3
     number of atoms/cell      =           82
     number of atomic types    =            2
     number of electrons       =       244.00
     number of Kohn-Sham states=          146
     kinetic-energy cutoff     =      30.0000  Ry
     charge density cutoff     =     150.0000  Ry
     convergence threshold     =      8.1E-05
     mixing beta               =       0.3000
     number of iterations used =            8  local-TF  mixing
     Exchange-correlation      =  SLA  PW   PBE  PBE ( 1  4  3  4 0 0)
     nstep                     =           50


     celldm(1)=  16.128000  celldm(2)=   0.000000  celldm(3)=  14.696938
     celldm(4)=   0.000000  celldm(5)=   0.000000  celldm(6)=   0.000000

     crystal axes: (cart. coord. in units of alat)
               a(1) = (   1.000000   0.000000   0.000000 )  
               a(2) = (  -0.500000   0.866025   0.000000 )  
               a(3) = (   0.000000   0.000000  14.696938 )  

     reciprocal axes: (cart. coord. in units 2 pi/alat)
               b(1) = (  1.000000  0.577350  0.000000 )  
               b(2) = (  0.000000  1.154701  0.000000 )  
               b(3) = (  0.000000  0.000000  0.068041 )  


     PseudoPot. # 1 for Al read from file:
     ./Al.pbe-n-van.UPF
     MD5 check sum: b11ded24487aef5bc42d5c7a2e22a7b6
     Pseudo is Ultrasoft + core correction, Zval =  3.0
     Generated by new atomic code, or converted to UPF format
     Using radial grid of  893 points,  2 beta functions with: 
                l(1) =   0
                l(2) =   1
     Q(r) pseudized with  8 coefficients,  rinner =    0.900   0.900   0.900


     PseudoPot. # 2 for H  read from file:
     ./H.pbe-rrkjus.UPF
     MD5 check sum: 0433647300470310da31d564c103eed6
     Pseudo is Ultrasoft, Zval =  1.0
     Generated by new atomic code, or converted to UPF format
     Using radial grid of 1061 points,  2 beta functions with: 
                l(1) =   0
                l(2) =   0
     Q(r) pseudized with 0 coefficients 


     atomic species   valence    mass     pseudopotential
        Al             3.00    26.98000     Al( 1.00)
        H              1.00     1.00790     H ( 1.00)

      6 Sym. Ops. (no inversion) found ( 4 have fractional translation)



   Cartesian axes

     site n.     atom                  positions (alat units)
         1           Al  tau(   1) = (   0.1666668   0.0962249   0.8164957  )
         2           Al  tau(   2) = (   0.0000002   0.3849001   0.8164957  )
         3           Al  tau(   3) = (  -0.1666665   0.6735752   0.8164957  )
         4           Al  tau(   4) = (   0.5000001   0.0962249   0.8164957  )
         5           Al  tau(   5) = (   0.3333335   0.3849001   0.8164957  )
         6           Al  tau(   6) = (   0.1666668   0.6735752   0.8164957  )
         7           Al  tau(   7) = (   0.8333335   0.0962249   0.8164957  )
         8           Al  tau(   8) = (   0.6666669   0.3849001   0.8164957  )
         9           Al  tau(   9) = (   0.5000002   0.6735752   0.8164957  )
        10           Al  tau(  10) = (   0.0000000   0.0000000   0.0000000  )
        11           Al  tau(  11) = (  -0.1666667   0.2886751   0.0000000  )
        12           Al  tau(  12) = (  -0.3333333   0.5773503   0.0000000  )
        13           Al  tau(  13) = (   0.3333333   0.0000000   0.0000000  )
        14           Al  tau(  14) = (   0.1666667   0.2886751   0.0000000  )
        15           Al  tau(  15) = (  -0.0000000   0.5773503   0.0000000  )
        16           Al  tau(  16) = (   0.6666667   0.0000000   0.0000000  )
        17           Al  tau(  17) = (   0.5000000   0.2886751   0.0000000  )
        18           Al  tau(  18) = (   0.3333333   0.5773503   0.0000000  )
        19           Al  tau(  19) = (  -0.0000002   0.1924502   1.6329939  )
        20           Al  tau(  20) = (  -0.1666668   0.4811253   1.6329939  )
        21           Al  tau(  21) = (  -0.3333335   0.7698005   1.6329939  )
        22           Al  tau(  22) = (   0.3333332   0.1924502   1.6329939  )
        23           Al  tau(  23) = (   0.1666665   0.4811253   1.6329939  )
        24           Al  tau(  24) = (  -0.0000002   0.7698005   1.6329939  )
        25           Al  tau(  25) = (   0.6666665   0.1924502   1.6329939  )
        26           Al  tau(  26) = (   0.4999999   0.4811253   1.6329939  )
        27           Al  tau(  27) = (   0.3333332   0.7698005   1.6329939  )
        28           Al  tau(  28) = (   0.1666668   0.0962249   3.2659855  )
        29           Al  tau(  29) = (   0.0000002   0.3849001   3.2659855  )
        30           Al  tau(  30) = (  -0.1666665   0.6735752   3.2659855  )
        31           Al  tau(  31) = (   0.5000001   0.0962249   3.2659855  )
        32           Al  tau(  32) = (   0.3333335   0.3849001   3.2659855  )
        33           Al  tau(  33) = (   0.1666668   0.6735752   3.2659855  )
        34           Al  tau(  34) = (   0.8333335   0.0962249   3.2659855  )
        35           Al  tau(  35) = (   0.6666669   0.3849001   3.2659855  )
        36           Al  tau(  36) = (   0.5000002   0.6735752   3.2659855  )
        37           Al  tau(  37) = (   0.0000000   0.0000000   2.4494897  )
        38           Al  tau(  38) = (  -0.1666667   0.2886751   2.4494897  )
        39           Al  tau(  39) = (  -0.3333333   0.5773503   2.4494897  )
        40           Al  tau(  40) = (   0.3333333   0.0000000   2.4494897  )
        41           Al  tau(  41) = (   0.1666667   0.2886751   2.4494897  )
        42           Al  tau(  42) = (  -0.0000000   0.5773503   2.4494897  )
        43           Al  tau(  43) = (   0.6666667   0.0000000   2.4494897  )
        44           Al  tau(  44) = (   0.5000000   0.2886751   2.4494897  )
        45           Al  tau(  45) = (   0.3333333   0.5773503   2.4494897  )
        46           Al  tau(  46) = (  -0.0000002   0.1924502   4.0824837  )
        47           Al  tau(  47) = (  -0.1666668   0.4811253   4.0824837  )
        48           Al  tau(  48) = (  -0.3333335   0.7698005   4.0824837  )
        49           Al  tau(  49) = (   0.3333332   0.1924502   4.0824837  )
        50           Al  tau(  50) = (   0.1666665   0.4811253   4.0824837  )
        51           Al  tau(  51) = (  -0.0000002   0.7698005   4.0824837  )
        52           Al  tau(  52) = (   0.6666665   0.1924502   4.0824837  )
        53           Al  tau(  53) = (   0.4999999   0.4811253   4.0824837  )
        54           Al  tau(  54) = (   0.3333332   0.7698005   4.0824837  )
        55           Al  tau(  55) = (   0.1666668   0.0962249   5.7154752  )
        56           Al  tau(  56) = (   0.0000002   0.3849001   5.7154752  )
        57           Al  tau(  57) = (  -0.1666665   0.6735752   5.7154752  )
        58           Al  tau(  58) = (   0.5000001   0.0962249   5.7154752  )
        59           Al  tau(  59) = (   0.3333335   0.3849001   5.7154752  )
        60           Al  tau(  60) = (   0.1666668   0.6735752   5.7154752  )
        61           Al  tau(  61) = (   0.8333335   0.0962249   5.7154752  )
        62           Al  tau(  62) = (   0.6666669   0.3849001   5.7154752  )
        63           Al  tau(  63) = (   0.5000002   0.6735752   5.7154752  )
        64           Al  tau(  64) = (   0.0000000   0.0000000   4.8989795  )
        65           Al  tau(  65) = (  -0.1666667   0.2886751   4.8989795  )
        66           Al  tau(  66) = (  -0.3333333   0.5773503   4.8989795  )
        67           Al  tau(  67) = (   0.3333333   0.0000000   4.8989795  )
        68           Al  tau(  68) = (   0.1666667   0.2886751   4.8989795  )
        69           Al  tau(  69) = (  -0.0000000   0.5773503   4.8989795  )
        70           Al  tau(  70) = (   0.6666667   0.0000000   4.8989795  )
        71           Al  tau(  71) = (   0.5000000   0.2886751   4.8989795  )
        72           Al  tau(  72) = (   0.3333333   0.5773503   4.8989795  )
        73           Al  tau(  73) = (  -0.0000002   0.1924502   6.5319734  )
        74           Al  tau(  74) = (  -0.1666668   0.4811253   6.5319734  )
        75           Al  tau(  75) = (  -0.3333335   0.7698005   6.5319734  )
        76           Al  tau(  76) = (   0.3333332   0.1924502   6.5319734  )
        77           Al  tau(  77) = (   0.1666665   0.4811253   6.5319734  )
        78           Al  tau(  78) = (  -0.0000002   0.7698005   6.5319734  )
        79           Al  tau(  79) = (   0.6666665   0.1924502   6.5319734  )
        80           Al  tau(  80) = (   0.4999999   0.4811253   6.5319734  )
        81           Al  tau(  81) = (   0.3333332   0.7698005   6.5319734  )
        82           H   tau(  82) = (  -0.0000002   0.1924502   6.7965183  )

     number of k points=    61  Marzari-Vanderbilt smearing, width (Ry)=  0.0250
                       cart. coord. in units 2pi/alat
        k(    1) = (   0.0000000   0.0000000   0.0000000), wk =   0.0034722
        k(    2) = (   0.0000000   0.0481125   0.0000000), wk =   0.0208333
        k(    3) = (   0.0000000   0.0962250   0.0000000), wk =   0.0208333
        k(    4) = (   0.0000000   0.1443376   0.0000000), wk =   0.0208333
        k(    5) = (   0.0000000   0.1924501   0.0000000), wk =   0.0208333
        k(    6) = (   0.0000000   0.2405626   0.0000000), wk =   0.0208333
        k(    7) = (   0.0000000   0.2886751   0.0000000), wk =   0.0208333
        k(    8) = (   0.0000000   0.3367877   0.0000000), wk =   0.0208333
        k(    9) = (   0.0000000   0.3849002   0.0000000), wk =   0.0208333
        k(   10) = (   0.0000000   0.4330127   0.0000000), wk =   0.0208333
        k(   11) = (   0.0000000   0.4811252   0.0000000), wk =   0.0208333
        k(   12) = (   0.0000000   0.5292377   0.0000000), wk =   0.0208333
        k(   13) = (   0.0000000  -0.5773503   0.0000000), wk =   0.0104167
        k(   14) = (   0.0416667   0.0721688   0.0000000), wk =   0.0208333
        k(   15) = (   0.0416667   0.1202813   0.0000000), wk =   0.0416667
        k(   16) = (   0.0416667   0.1683938   0.0000000), wk =   0.0416667
        k(   17) = (   0.0416667   0.2165064   0.0000000), wk =   0.0416667
        k(   18) = (   0.0416667   0.2646189   0.0000000), wk =   0.0416667
        k(   19) = (   0.0416667   0.3127314   0.0000000), wk =   0.0416667
        k(   20) = (   0.0416667   0.3608439   0.0000000), wk =   0.0416667
        k(   21) = (   0.0416667   0.4089564   0.0000000), wk =   0.0416667
        k(   22) = (   0.0416667   0.4570690   0.0000000), wk =   0.0416667
        k(   23) = (   0.0416667   0.5051815   0.0000000), wk =   0.0416667
        k(   24) = (   0.0416667   0.5532940   0.0000000), wk =   0.0416667
        k(   25) = (   0.0833333   0.1443376   0.0000000), wk =   0.0208333
        k(   26) = (   0.0833333   0.1924501   0.0000000), wk =   0.0416667
        k(   27) = (   0.0833333   0.2405626   0.0000000), wk =   0.0416667
        k(   28) = (   0.0833333   0.2886751   0.0000000), wk =   0.0416667
        k(   29) = (   0.0833333   0.3367877   0.0000000), wk =   0.0416667
        k(   30) = (   0.0833333   0.3849002   0.0000000), wk =   0.0416667
        k(   31) = (   0.0833333   0.4330127   0.0000000), wk =   0.0416667
        k(   32) = (   0.0833333   0.4811252   0.0000000), wk =   0.0416667
        k(   33) = (   0.0833333   0.5292377   0.0000000), wk =   0.0416667
        k(   34) = (   0.0833333   0.5773503   0.0000000), wk =   0.0208333
        k(   35) = (   0.1250000   0.2165064   0.0000000), wk =   0.0208333
        k(   36) = (   0.1250000   0.2646189   0.0000000), wk =   0.0416667
        k(   37) = (   0.1250000   0.3127314   0.0000000), wk =   0.0416667
        k(   38) = (   0.1250000   0.3608439   0.0000000), wk =   0.0416667
        k(   39) = (   0.1250000   0.4089564   0.0000000), wk =   0.0416667
        k(   40) = (   0.1250000   0.4570690   0.0000000), wk =   0.0416667
        k(   41) = (   0.1250000   0.5051815   0.0000000), wk =   0.0416667
        k(   42) = (   0.1250000   0.5532940   0.0000000), wk =   0.0416667
        k(   43) = (   0.1666667   0.2886751   0.0000000), wk =   0.0208333
        k(   44) = (   0.1666667   0.3367877   0.0000000), wk =   0.0416667
        k(   45) = (   0.1666667   0.3849002   0.0000000), wk =   0.0416667
        k(   46) = (   0.1666667   0.4330127   0.0000000), wk =   0.0416667
        k(   47) = (   0.1666667   0.4811252   0.0000000), wk =   0.0416667
        k(   48) = (   0.1666667   0.5292377   0.0000000), wk =   0.0416667
        k(   49) = (   0.1666667   0.5773503   0.0000000), wk =   0.0208333
        k(   50) = (   0.2083333   0.3608439   0.0000000), wk =   0.0208333
        k(   51) = (   0.2083333   0.4089564   0.0000000), wk =   0.0416667
        k(   52) = (   0.2083333   0.4570690   0.0000000), wk =   0.0416667
        k(   53) = (   0.2083333   0.5051815   0.0000000), wk =   0.0416667
        k(   54) = (   0.2083333   0.5532940   0.0000000), wk =   0.0416667
        k(   55) = (   0.2500000   0.4330127   0.0000000), wk =   0.0208333
        k(   56) = (   0.2500000   0.4811252   0.0000000), wk =   0.0416667
        k(   57) = (   0.2500000   0.5292377   0.0000000), wk =   0.0416667
        k(   58) = (   0.2500000   0.5773503   0.0000000), wk =   0.0208333
        k(   59) = (   0.2916667   0.5051815   0.0000000), wk =   0.0208333
        k(   60) = (   0.2916667   0.5532940   0.0000000), wk =   0.0416667
        k(   61) = (   0.3333333   0.5773503   0.0000000), wk =   0.0069444

     Dense  grid:  1657165 G-vectors     FFT dimensions: (  72,  72, 960)

     Smooth grid:  1184975 G-vectors     FFT dimensions: (  60,  60, 864)

     Estimated max dynamical RAM per process >      28.21 GB

     Initial potential from superposition of free atoms

     starting charge  243.70410, renormalised to  244.00000

     negative rho (up, down):  7.765E-04 0.000E+00
     Starting wfcs are  325 randomized atomic wfcs

     total cpu time spent up to now is     3287.2 secs

     Self-consistent Calculation

     iteration #  1     ecut=    30.00 Ry     beta= 0.30
     Davidson diagonalization with overlap
     ethr =  1.00E-02,  avg # of iterations =  3.0

     negative rho (up, down):  1.577E-03 0.000E+00

     total cpu time spent up to now is     8814.3 secs

     total energy              =   -1008.15590204 Ry
     Harris-Foulkes estimate   =   -1011.19765772 Ry
     estimated scf accuracy    <    2012.94614308 Ry

     iteration #  2     ecut=    30.00 Ry     beta= 0.30
     Davidson diagonalization with overlap
     ethr =  1.00E-02,  avg # of iterations =  1.0

     negative rho (up, down):  2.373E-01 0.000E+00

     total cpu time spent up to now is    12473.8 secs

     total energy              =   -1004.15805365 Ry
     Harris-Foulkes estimate   =   -1008.63765009 Ry
     estimated scf accuracy    <     941.04470346 Ry

     iteration #  3     ecut=    30.00 Ry     beta= 0.30
     Davidson diagonalization with overlap
     ethr =  1.00E-02,  avg # of iterations =  1.1

     negative rho (up, down):  2.411E-01 0.000E+00

     total cpu time spent up to now is    16186.9 secs

     total energy              =   -1006.14136691 Ry
     Harris-Foulkes estimate   =   -1006.15850239 Ry
     estimated scf accuracy    <      17.48563675 Ry

     iteration #  4     ecut=    30.00 Ry     beta= 0.30
     Davidson diagonalization with overlap
     ethr =  7.17E-03,  avg # of iterations =  1.1

     negative rho (up, down):  2.291E-01 0.000E+00

     total cpu time spent up to now is    19833.9 secs

     total energy              =   -1005.98775731 Ry
     Harris-Foulkes estimate   =   -1006.14992524 Ry
     estimated scf accuracy    <      15.75079149 Ry

     iteration #  5     ecut=    30.00 Ry     beta= 0.30
     Davidson diagonalization with overlap
     ethr =  6.46E-03,  avg # of iterations =  1.0

     negative rho (up, down):  2.244E-01 0.000E+00

     total cpu time spent up to now is    23458.6 secs

     total energy              =   -1005.87423938 Ry
     Harris-Foulkes estimate   =   -1006.00088623 Ry
     estimated scf accuracy    <      11.70285474 Ry

     iteration #  6     ecut=    30.00 Ry     beta= 0.30
     Davidson diagonalization with overlap
     ethr =  4.80E-03,  avg # of iterations =  1.0

     negative rho (up, down):  2.250E-01 0.000E+00

     total cpu time spent up to now is    27088.2 secs

     total energy              =   -1005.66731224 Ry
     Harris-Foulkes estimate   =   -1005.87994989 Ry
     estimated scf accuracy    <      11.23370731 Ry

     iteration #  7     ecut=    30.00 Ry     beta= 0.30
     Davidson diagonalization with overlap
     ethr =  4.60E-03,  avg # of iterations =  1.4

     negative rho (up, down):  2.980E-01 0.000E+00

     total cpu time spent up to now is    30771.1 secs

     total energy              =   -1005.46614433 Ry
     Harris-Foulkes estimate   =   -1005.71145462 Ry
     estimated scf accuracy    <       8.91047445 Ry

     iteration #  8     ecut=    30.00 Ry     beta= 0.30
     Davidson diagonalization with overlap
     ethr =  3.65E-03,  avg # of iterations =  3.7

     negative rho (up, down):  2.077E-01 0.000E+00

     total cpu time spent up to now is    35053.8 secs

     total energy              =   -1006.27045898 Ry
     Harris-Foulkes estimate   =   -1006.37600686 Ry
     estimated scf accuracy    <      16.88862338 Ry

     iteration #  9     ecut=    30.00 Ry     beta= 0.30
     Davidson diagonalization with overlap
     ethr =  3.65E-03,  avg # of iterations =  2.9

     negative rho (up, down):  2.193E-01 0.000E+00

     total cpu time spent up to now is    39092.6 secs

     total energy              =   -1006.53722428 Ry
     Harris-Foulkes estimate   =   -1006.67441948 Ry
     estimated scf accuracy    <      56.77121110 Ry

     iteration # 10     ecut=    30.00 Ry     beta= 0.30
     Davidson diagonalization with overlap
     ethr =  3.65E-03,  avg # of iterations =  2.2

     negative rho (up, down):  2.176E-01 0.000E+00

     total cpu time spent up to now is    42899.4 secs

     total energy              =   -1006.69907872 Ry
     Harris-Foulkes estimate   =   -1006.70183098 Ry
     estimated scf accuracy    <      88.34837736 Ry

     iteration # 11     ecut=    30.00 Ry     beta= 0.30
     Davidson diagonalization with overlap
     ethr =  3.65E-03,  avg # of iterations =  2.6

     negative rho (up, down):  2.184E-01 0.000E+00

     total cpu time spent up to now is    46812.7 secs

     total energy              =   -1007.00359557 Ry
     Harris-Foulkes estimate   =   -1006.96392333 Ry
     estimated scf accuracy    <     165.52810349 Ry

     iteration # 12     ecut=    30.00 Ry     beta= 0.30
     Davidson diagonalization with overlap
     ethr =  3.65E-03,  avg # of iterations =  2.0

     negative rho (up, down):  2.215E-01 0.000E+00

     total cpu time spent up to now is    50554.6 secs

     total energy              =   -1006.98173253 Ry
     Harris-Foulkes estimate   =   -1007.09694585 Ry
     estimated scf accuracy    <     206.65751659 Ry

     iteration # 13     ecut=    30.00 Ry     beta= 0.30
     Davidson diagonalization with overlap
     ethr =  3.65E-03,  avg # of iterations =  1.4

     negative rho (up, down):  2.285E-01 0.000E+00

     total cpu time spent up to now is    54246.5 secs

     total energy              =   -1006.27640804 Ry
     Harris-Foulkes estimate   =   -1007.02677012 Ry
     estimated scf accuracy    <     214.44293375 Ry

     iteration # 14     ecut=    30.00 Ry     beta= 0.30
     Davidson diagonalization with overlap
     ethr =  3.65E-03,  avg # of iterations =  1.1

     negative rho (up, down):  2.267E-01 0.000E+00

     total cpu time spent up to now is    57876.9 secs

     total energy              =   -1006.48025914 Ry
     Harris-Foulkes estimate   =   -1006.38711163 Ry
     estimated scf accuracy    <      93.03694553 Ry

     iteration # 15     ecut=    30.00 Ry     beta= 0.30
     Davidson diagonalization with overlap
     ethr =  3.65E-03,  avg # of iterations =  2.0

     negative rho (up, down):  2.233E-01 0.000E+00

     total cpu time spent up to now is    61586.9 secs

     total energy              =   -1006.58514461 Ry
     Harris-Foulkes estimate   =   -1006.51136034 Ry
     estimated scf accuracy    <     135.31301995 Ry

     iteration # 16     ecut=    30.00 Ry     beta= 0.30
     Davidson diagonalization with overlap
     ethr =  3.65E-03,  avg # of iterations =  1.3

     negative rho (up, down):  2.566E-01 0.000E+00

     total cpu time spent up to now is    65251.0 secs

     total energy              =   -1004.56147688 Ry
     Harris-Foulkes estimate   =   -1006.59111179 Ry
     estimated scf accuracy    <     158.86095166 Ry

     iteration # 17     ecut=    30.00 Ry     beta= 0.30
     Davidson diagonalization with overlap
     ethr =  3.65E-03,  avg # of iterations =  2.7

     negative rho (up, down):  2.248E-01 0.000E+00

     total cpu time spent up to now is    69053.7 secs

     total energy              =   -1006.15575354 Ry
     Harris-Foulkes estimate   =   -1006.71389320 Ry
     estimated scf accuracy    <     183.42321743 Ry

     iteration # 18     ecut=    30.00 Ry     beta= 0.30
     Davidson diagonalization with overlap
     ethr =  3.65E-03,  avg # of iterations =  1.3

     negative rho (up, down):  2.161E-01 0.000E+00

     total cpu time spent up to now is    72738.2 secs

     total energy              =   -1006.53403767 Ry
     Harris-Foulkes estimate   =   -1006.27935743 Ry
     estimated scf accuracy    <      51.43938136 Ry

     iteration # 19     ecut=    30.00 Ry     beta= 0.30
     Davidson diagonalization with overlap
     ethr =  3.65E-03,  avg # of iterations =  1.1

     negative rho (up, down):  1.585E-01 0.000E+00

     total cpu time spent up to now is    76373.6 secs

     total energy              =   -1006.08318440 Ry
     Harris-Foulkes estimate   =   -1006.62053020 Ry
     estimated scf accuracy    <     158.86159145 Ry

     iteration # 20     ecut=    30.00 Ry     beta= 0.30
     Davidson diagonalization with overlap
     ethr =  3.65E-03,  avg # of iterations =  1.1

     negative rho (up, down):  1.549E-01 0.000E+00

     total cpu time spent up to now is    80016.2 secs

     total energy              =   -1005.98659764 Ry
     Harris-Foulkes estimate   =   -1006.21593195 Ry
     estimated scf accuracy    <      45.81611619 Ry

     iteration # 21     ecut=    30.00 Ry     beta= 0.30
     Davidson diagonalization with overlap
     ethr =  3.65E-03,  avg # of iterations =  1.1

     negative rho (up, down):  1.515E-01 0.000E+00

     total cpu time spent up to now is    83680.3 secs

     total energy              =   -1006.07698045 Ry
     Harris-Foulkes estimate   =   -1006.08374060 Ry
     estimated scf accuracy    <       1.14500272 Ry

     iteration # 22     ecut=    30.00 Ry     beta= 0.30
     Davidson diagonalization with overlap
     ethr =  4.69E-04,  avg # of iterations =  1.9

     negative rho (up, down):  1.453E-01 0.000E+00

     total cpu time spent up to now is    87400.4 secs

     total energy              =   -1006.07952156 Ry
     Harris-Foulkes estimate   =   -1006.08087473 Ry
     estimated scf accuracy    <       0.08361635 Ry

     iteration # 23     ecut=    30.00 Ry     beta= 0.30
     Davidson diagonalization with overlap
     c_bands:  1 eigenvalues not converged
     c_bands:  1 eigenvalues not converged
     c_bands:  3 eigenvalues not converged
     c_bands:  5 eigenvalues not converged
     c_bands:  1 eigenvalues not converged
     c_bands:  2 eigenvalues not converged
     ethr =  3.43E-05,  avg # of iterations = 10.7

     negative rho (up, down):  1.430E-01 0.000E+00

     total cpu time spent up to now is    92238.4 secs

     total energy              =   -1006.07051610 Ry
     Harris-Foulkes estimate   =   -1006.08232689 Ry
     estimated scf accuracy    <       0.52380253 Ry

     iteration # 24     ecut=    30.00 Ry     beta= 0.30
     Davidson diagonalization with overlap
     ethr =  3.43E-05,  avg # of iterations =  3.3

     negative rho (up, down):  1.284E-01 0.000E+00

     total cpu time spent up to now is    96043.0 secs

     total energy              =   -1006.07447125 Ry
     Harris-Foulkes estimate   =   -1006.07743381 Ry
     estimated scf accuracy    <       0.11532180 Ry

     iteration # 25     ecut=    30.00 Ry     beta= 0.30
     Davidson diagonalization with overlap
     ethr =  3.43E-05,  avg # of iterations =  1.4

     negative rho (up, down):  1.295E-01 0.000E+00

     total cpu time spent up to now is    99770.7 secs

     total energy              =   -1006.07631758 Ry
     Harris-Foulkes estimate   =   -1006.07619261 Ry
     estimated scf accuracy    <       0.04174947 Ry

     iteration # 26     ecut=    30.00 Ry     beta= 0.30
     Davidson diagonalization with overlap
     ethr =  1.71E-05,  avg # of iterations =  1.1

     negative rho (up, down):  1.288E-01 0.000E+00

     total cpu time spent up to now is   103409.6 secs

     total energy              =   -1006.07604989 Ry
     Harris-Foulkes estimate   =   -1006.07639722 Ry
     estimated scf accuracy    <       0.04406514 Ry

     iteration # 27     ecut=    30.00 Ry     beta= 0.30
     Davidson diagonalization with overlap
     ethr =  1.71E-05,  avg # of iterations =  1.0

     negative rho (up, down):  1.291E-01 0.000E+00

     total cpu time spent up to now is   107043.0 secs

     total energy              =   -1006.07446875 Ry
     Harris-Foulkes estimate   =   -1006.07616957 Ry
     estimated scf accuracy    <       0.02878077 Ry

     iteration # 28     ecut=    30.00 Ry     beta= 0.30
     Davidson diagonalization with overlap
     ethr =  1.18E-05,  avg # of iterations =  1.5

     negative rho (up, down):  1.112E-01 0.000E+00

     total cpu time spent up to now is   110684.5 secs

     total energy              =   -1006.07273484 Ry
     Harris-Foulkes estimate   =   -1006.07483714 Ry
     estimated scf accuracy    <       0.01352039 Ry

     iteration # 29     ecut=    30.00 Ry     beta= 0.30
     Davidson diagonalization with overlap
     ethr =  5.54E-06,  avg # of iterations =  2.6

     negative rho (up, down):  9.201E-02 0.000E+00

     total cpu time spent up to now is   114447.9 secs

     total energy              =   -1006.07056419 Ry
     Harris-Foulkes estimate   =   -1006.07287688 Ry
     estimated scf accuracy    <       0.01025981 Ry

     iteration # 30     ecut=    30.00 Ry     beta= 0.30
     Davidson diagonalization with overlap
     c_bands:  1 eigenvalues not converged
     c_bands:  2 eigenvalues not converged
     ethr =  4.20E-06,  avg # of iterations =  6.1

     negative rho (up, down):  8.205E-02 0.000E+00

     total cpu time spent up to now is   118483.4 secs

     total energy              =   -1006.06956242 Ry
     Harris-Foulkes estimate   =   -1006.07085015 Ry
     estimated scf accuracy    <       0.00833732 Ry

     iteration # 31     ecut=    30.00 Ry     beta= 0.30
     Davidson diagonalization with overlap
     ethr =  3.42E-06,  avg # of iterations =  3.2

     negative rho (up, down):  7.989E-02 0.000E+00

     total cpu time spent up to now is   122320.9 secs

     total energy              =   -1006.06918000 Ry
     Harris-Foulkes estimate   =   -1006.06976514 Ry
     estimated scf accuracy    <       0.00763638 Ry

     iteration # 32     ecut=    30.00 Ry     beta= 0.30
     Davidson diagonalization with overlap
     ethr =  3.13E-06,  avg # of iterations =  1.1

     negative rho (up, down):  7.787E-02 0.000E+00

     total cpu time spent up to now is   125933.1 secs

     total energy              =   -1006.06901853 Ry
     Harris-Foulkes estimate   =   -1006.06923143 Ry
     estimated scf accuracy    <       0.00679402 Ry

     iteration # 33     ecut=    30.00 Ry     beta= 0.30
     Davidson diagonalization with overlap
     ethr =  2.78E-06,  avg # of iterations =  1.0

     negative rho (up, down):  7.922E-02 0.000E+00

     total cpu time spent up to now is   129608.0 secs

     total energy              =   -1006.06911840 Ry
     Harris-Foulkes estimate   =   -1006.06904227 Ry
     estimated scf accuracy    <       0.00637761 Ry

     iteration # 34     ecut=    30.00 Ry     beta= 0.30
     Davidson diagonalization with overlap
     ethr =  2.61E-06,  avg # of iterations =  1.0

     negative rho (up, down):  7.380E-02 0.000E+00

     total cpu time spent up to now is   133258.2 secs

     total energy              =   -1006.06886340 Ry
     Harris-Foulkes estimate   =   -1006.06912730 Ry
     estimated scf accuracy    <       0.00643618 Ry

     iteration # 35     ecut=    30.00 Ry     beta= 0.30
     Davidson diagonalization with overlap
     ethr =  2.61E-06,  avg # of iterations =  1.0

     negative rho (up, down):  6.537E-02 0.000E+00

     total cpu time spent up to now is   136886.1 secs

     total energy              =   -1006.06780358 Ry
     Harris-Foulkes estimate   =   -1006.06893254 Ry
     estimated scf accuracy    <       0.00510468 Ry

     iteration # 36     ecut=    30.00 Ry     beta= 0.30
     Davidson diagonalization with overlap
     ethr =  2.09E-06,  avg # of iterations =  1.2

     negative rho (up, down):  6.996E-02 0.000E+00

     total cpu time spent up to now is   140558.3 secs

     total energy              =   -1006.06710222 Ry
     Harris-Foulkes estimate   =   -1006.06794953 Ry
     estimated scf accuracy    <       0.00343186 Ry

     iteration # 37     ecut=    30.00 Ry     beta= 0.30
     Davidson diagonalization with overlap
     ethr =  1.41E-06,  avg # of iterations =  2.2

     negative rho (up, down):  7.030E-02 0.000E+00

     total cpu time spent up to now is   144327.9 secs

     total energy              =   -1006.06677513 Ry
     Harris-Foulkes estimate   =   -1006.06714827 Ry
     estimated scf accuracy    <       0.00249388 Ry

     iteration # 38     ecut=    30.00 Ry     beta= 0.30
     Davidson diagonalization with overlap
     ethr =  1.02E-06,  avg # of iterations =  1.0

     negative rho (up, down):  5.792E-02 0.000E+00

     total cpu time spent up to now is   147939.0 secs

     total energy              =   -1006.06636836 Ry
     Harris-Foulkes estimate   =   -1006.06678867 Ry
     estimated scf accuracy    <       0.00218122 Ry

     iteration # 39     ecut=    30.00 Ry     beta= 0.30
     Davidson diagonalization with overlap
     ethr =  8.94E-07,  avg # of iterations =  1.0

     negative rho (up, down):  4.685E-02 0.000E+00

     total cpu time spent up to now is   151546.9 secs

     total energy              =   -1006.06607216 Ry
     Harris-Foulkes estimate   =   -1006.06638415 Ry
     estimated scf accuracy    <       0.00174845 Ry

     iteration # 40     ecut=    30.00 Ry     beta= 0.30
     Davidson diagonalization with overlap
     c_bands:  2 eigenvalues not converged
     ethr =  7.17E-07,  avg # of iterations =  1.3

     negative rho (up, down):  4.114E-02 0.000E+00

     total cpu time spent up to now is   155178.8 secs

     total energy              =   -1006.06565025 Ry
     Harris-Foulkes estimate   =   -1006.06607885 Ry
     estimated scf accuracy    <       0.00140327 Ry

     iteration # 41     ecut=    30.00 Ry     beta= 0.30
     Davidson diagonalization with overlap
     ethr =  5.75E-07,  avg # of iterations =  1.3

     negative rho (up, down):  3.916E-02 0.000E+00

     total cpu time spent up to now is   158816.0 secs

     total energy              =   -1006.06556441 Ry
     Harris-Foulkes estimate   =   -1006.06566200 Ry
     estimated scf accuracy    <       0.00111143 Ry

     iteration # 42     ecut=    30.00 Ry     beta= 0.30
     Davidson diagonalization with overlap
     ethr =  4.56E-07,  avg # of iterations =  1.0

     negative rho (up, down):  3.419E-02 0.000E+00

     total cpu time spent up to now is   162460.6 secs

     total energy              =   -1006.06538004 Ry
     Harris-Foulkes estimate   =   -1006.06556863 Ry
     estimated scf accuracy    <       0.00100801 Ry

     iteration # 43     ecut=    30.00 Ry     beta= 0.30
     Davidson diagonalization with overlap
     ethr =  4.13E-07,  avg # of iterations =  2.5

     negative rho (up, down):  3.345E-02 0.000E+00

     total cpu time spent up to now is   166216.7 secs

     total energy              =   -1006.06534150 Ry
     Harris-Foulkes estimate   =   -1006.06541402 Ry
     estimated scf accuracy    <       0.00084788 Ry

     iteration # 44     ecut=    30.00 Ry     beta= 0.30
     Davidson diagonalization with overlap
     ethr =  3.47E-07,  avg # of iterations =  1.1

     negative rho (up, down):  2.652E-02 0.000E+00

     total cpu time spent up to now is   169870.7 secs

     total energy              =   -1006.06509712 Ry
     Harris-Foulkes estimate   =   -1006.06534656 Ry
     estimated scf accuracy    <       0.00072100 Ry

     iteration # 45     ecut=    30.00 Ry     beta= 0.30
     Davidson diagonalization with overlap
