--------------------------------------------------------------------------
[[19239,1],0]: A high-performance Open MPI point-to-point messaging module
was unable to find any relevant network interfaces:

Module: OpenFabrics (openib)
  Host: ubuntu

Another transport will be used instead, although this may result in
lower performance.
--------------------------------------------------------------------------

     Program PWSCF v.5.1 starts on 28May2020 at 14:58:44 

     This program is part of the open-source Quantum ESPRESSO suite
     for quantum simulation of materials; please cite
         "P. Giannozzi et al., J. Phys.:Condens. Matter 21 395502 (2009);
          URL http://www.quantum-espresso.org", 
     in publications or presentations arising from this work. More details at
     http://www.quantum-espresso.org/quote

     Parallel version (MPI), running on     1 processors
     Reading input from Al_100_surf_vac_1.pw.in

     Current dimensions of program PWSCF are:
     Max number of different atomic species (ntypx) = 10
     Max number of k-points (npk) =  40000
     Max angular momentum in pseudopotentials (lmaxx) =  3

     Subspace diagonalization in iterative solution of the eigenvalue problem:
     a serial algorithm will be used

     Found symmetry operation: I + ( -0.5000 -0.5000  0.0000)
     This is a supercell, fractional translations are disabled

     G-vector sticks info
     --------------------
     sticks:   dense  smooth     PW     G-vecs:    dense   smooth      PW
     Sum         681     681    421                40865    40865   19337



     bravais-lattice index     =            6
     lattice parameter (alat)  =       7.6050  a.u.
     unit-cell volume          =    1319.5289 (a.u.)^3
     number of atoms/cell      =            8
     number of atomic types    =            1
     number of electrons       =        24.00
     number of Kohn-Sham states=           16
     kinetic-energy cutoff     =      80.0000  Ry
     charge density cutoff     =     150.0000  Ry
     convergence threshold     =      1.0E-06
     mixing beta               =       0.3000
     number of iterations used =            8  local-TF  mixing
     Exchange-correlation      =  SLA  PW   PBE  PBE ( 1  4  3  4 0)
     nstep                     =           50


     celldm(1)=   7.605000  celldm(2)=   0.000000  celldm(3)=   3.000000
     celldm(4)=   0.000000  celldm(5)=   0.000000  celldm(6)=   0.000000

     crystal axes: (cart. coord. in units of alat)
               a(1) = (   1.000000   0.000000   0.000000 )  
               a(2) = (   0.000000   1.000000   0.000000 )  
               a(3) = (   0.000000   0.000000   3.000000 )  

     reciprocal axes: (cart. coord. in units 2 pi/alat)
               b(1) = (  1.000000  0.000000  0.000000 )  
               b(2) = (  0.000000  1.000000  0.000000 )  
               b(3) = (  0.000000  0.000000  0.333333 )  


     PseudoPot. # 1 for Al read from file:
     ./Al.pbe-n-van.UPF
     MD5 check sum: b11ded24487aef5bc42d5c7a2e22a7b6
     Pseudo is Ultrasoft + core correction, Zval =  3.0
     Generated by new atomic code, or converted to UPF format
     Using radial grid of  893 points,  2 beta functions with: 
                l(1) =   0
                l(2) =   1
     Q(r) pseudized with  8 coefficients,  rinner =    0.900   0.900   0.900


     atomic species   valence    mass     pseudopotential
        Al             3.00    26.98000     Al( 1.00)

      8 Sym. Ops. (no inversion) found



   Cartesian axes

     site n.     atom                  positions (alat units)
         1           Al  tau(   1) = (   0.0000000   0.0000000   0.0000000  )
         2           Al  tau(   2) = (   0.5000000   0.5000000   0.0000000  )
         3           Al  tau(   3) = (   0.5000000   0.0000000   0.5000000  )
         4           Al  tau(   4) = (   0.0000000   0.5000000   0.5000000  )
         5           Al  tau(   5) = (   0.0000000   0.0000000   1.0000000  )
         6           Al  tau(   6) = (   0.5000000   0.5000000   1.0000000  )
         7           Al  tau(   7) = (   0.5000000   0.0000000   1.5000000  )
         8           Al  tau(   8) = (   0.0000000   0.5000000   1.5000000  )

     number of k points=    45  Marzari-Vanderbilt smearing, width (Ry)=  0.0250
                       cart. coord. in units 2pi/alat
        k(    1) = (   0.0000000   0.0000000   0.0000000), wk =   0.0078125
        k(    2) = (   0.0000000   0.0625000   0.0000000), wk =   0.0312500
        k(    3) = (   0.0000000   0.1250000   0.0000000), wk =   0.0312500
        k(    4) = (   0.0000000   0.1875000   0.0000000), wk =   0.0312500
        k(    5) = (   0.0000000   0.2500000   0.0000000), wk =   0.0312500
        k(    6) = (   0.0000000   0.3125000   0.0000000), wk =   0.0312500
        k(    7) = (   0.0000000   0.3750000   0.0000000), wk =   0.0312500
        k(    8) = (   0.0000000   0.4375000   0.0000000), wk =   0.0312500
        k(    9) = (   0.0000000  -0.5000000   0.0000000), wk =   0.0156250
        k(   10) = (   0.0625000   0.0625000   0.0000000), wk =   0.0312500
        k(   11) = (   0.0625000   0.1250000   0.0000000), wk =   0.0625000
        k(   12) = (   0.0625000   0.1875000   0.0000000), wk =   0.0625000
        k(   13) = (   0.0625000   0.2500000   0.0000000), wk =   0.0625000
        k(   14) = (   0.0625000   0.3125000   0.0000000), wk =   0.0625000
        k(   15) = (   0.0625000   0.3750000   0.0000000), wk =   0.0625000
        k(   16) = (   0.0625000   0.4375000   0.0000000), wk =   0.0625000
        k(   17) = (   0.0625000  -0.5000000   0.0000000), wk =   0.0312500
        k(   18) = (   0.1250000   0.1250000   0.0000000), wk =   0.0312500
        k(   19) = (   0.1250000   0.1875000   0.0000000), wk =   0.0625000
        k(   20) = (   0.1250000   0.2500000   0.0000000), wk =   0.0625000
        k(   21) = (   0.1250000   0.3125000   0.0000000), wk =   0.0625000
        k(   22) = (   0.1250000   0.3750000   0.0000000), wk =   0.0625000
        k(   23) = (   0.1250000   0.4375000   0.0000000), wk =   0.0625000
        k(   24) = (   0.1250000  -0.5000000   0.0000000), wk =   0.0312500
        k(   25) = (   0.1875000   0.1875000   0.0000000), wk =   0.0312500
        k(   26) = (   0.1875000   0.2500000   0.0000000), wk =   0.0625000
        k(   27) = (   0.1875000   0.3125000   0.0000000), wk =   0.0625000
        k(   28) = (   0.1875000   0.3750000   0.0000000), wk =   0.0625000
        k(   29) = (   0.1875000   0.4375000   0.0000000), wk =   0.0625000
        k(   30) = (   0.1875000  -0.5000000   0.0000000), wk =   0.0312500
        k(   31) = (   0.2500000   0.2500000   0.0000000), wk =   0.0312500
        k(   32) = (   0.2500000   0.3125000   0.0000000), wk =   0.0625000
        k(   33) = (   0.2500000   0.3750000   0.0000000), wk =   0.0625000
        k(   34) = (   0.2500000   0.4375000   0.0000000), wk =   0.0625000
        k(   35) = (   0.2500000  -0.5000000   0.0000000), wk =   0.0312500
        k(   36) = (   0.3125000   0.3125000   0.0000000), wk =   0.0312500
        k(   37) = (   0.3125000   0.3750000   0.0000000), wk =   0.0625000
        k(   38) = (   0.3125000   0.4375000   0.0000000), wk =   0.0625000
        k(   39) = (   0.3125000  -0.5000000   0.0000000), wk =   0.0312500
        k(   40) = (   0.3750000   0.3750000   0.0000000), wk =   0.0312500
        k(   41) = (   0.3750000   0.4375000   0.0000000), wk =   0.0625000
        k(   42) = (   0.3750000  -0.5000000   0.0000000), wk =   0.0312500
        k(   43) = (   0.4375000   0.4375000   0.0000000), wk =   0.0312500
        k(   44) = (   0.4375000  -0.5000000   0.0000000), wk =   0.0312500
        k(   45) = (  -0.5000000  -0.5000000   0.0000000), wk =   0.0078125

     Dense  grid:    40865 G-vectors     FFT dimensions: (  30,  30,  90)

     Largest allocated arrays     est. size (Mb)     dimensions
        Kohn-Sham Wavefunctions         3.90 Mb     (   15989,   16)
        NL pseudopotentials             7.81 Mb     (   15989,   32)
        Each V/rho on FFT grid          1.24 Mb     (   81000)
        Each G-vector array             0.31 Mb     (   40865)
        G-vector shells                 0.01 Mb     (     734)
     Largest temporary arrays     est. size (Mb)     dimensions
        Auxiliary wavefunctions        15.61 Mb     (   15989,   64)
        Each subspace H/S matrix        0.06 Mb     (      64,   64)
        Each <psi_i|beta_j> matrix      0.01 Mb     (      32,   16)
        Arrays for rho mixing           9.89 Mb     (   81000,    8)

     Initial potential from superposition of free atoms

     starting charge   23.98028, renormalised to   24.00000
     Starting wfc are   32 randomized atomic wfcs

     total cpu time spent up to now is       19.0 secs

     per-process dynamical memory:   209.8 Mb

     Self-consistent Calculation

     iteration #  1     ecut=    80.00 Ry     beta=0.30
     Davidson diagonalization with overlap
     ethr =  1.00E-02,  avg # of iterations =  2.8

     total cpu time spent up to now is       53.9 secs

     total energy              =     -99.64292277 Ry
     Harris-Foulkes estimate   =     -99.67742837 Ry
     estimated scf accuracy    <       0.55180281 Ry

     iteration #  2     ecut=    80.00 Ry     beta=0.30
     Davidson diagonalization with overlap
     ethr =  2.30E-03,  avg # of iterations =  1.0

     negative rho (up, down):  2.899E-05 0.000E+00

     total cpu time spent up to now is       75.2 secs

     total energy              =     -99.51550048 Ry
     Harris-Foulkes estimate   =     -99.64969884 Ry
     estimated scf accuracy    <       0.40936525 Ry

     iteration #  3     ecut=    80.00 Ry     beta=0.30
     Davidson diagonalization with overlap
     ethr =  1.71E-03,  avg # of iterations =  2.3

     total cpu time spent up to now is      101.5 secs

     total energy              =     -99.57854932 Ry
     Harris-Foulkes estimate   =     -99.61324679 Ry
     estimated scf accuracy    <       0.18332337 Ry

     iteration #  4     ecut=    80.00 Ry     beta=0.30
     Davidson diagonalization with overlap
     ethr =  7.64E-04,  avg # of iterations =  1.7

     total cpu time spent up to now is      123.5 secs

     total energy              =     -99.59127426 Ry
     Harris-Foulkes estimate   =     -99.59266990 Ry
     estimated scf accuracy    <       0.01116422 Ry

     iteration #  5     ecut=    80.00 Ry     beta=0.30
     Davidson diagonalization with overlap
     ethr =  4.65E-05,  avg # of iterations =  3.5

     total cpu time spent up to now is      150.8 secs

     total energy              =     -99.59247648 Ry
     Harris-Foulkes estimate   =     -99.59291019 Ry
     estimated scf accuracy    <       0.00340523 Ry

     iteration #  6     ecut=    80.00 Ry     beta=0.30
     Davidson diagonalization with overlap
     ethr =  1.42E-05,  avg # of iterations =  3.3

     total cpu time spent up to now is      184.8 secs

     total energy              =     -99.59269471 Ry
     Harris-Foulkes estimate   =     -99.59501738 Ry
     estimated scf accuracy    <       0.02566259 Ry

     iteration #  7     ecut=    80.00 Ry     beta=0.30
     Davidson diagonalization with overlap
     ethr =  1.42E-05,  avg # of iterations =  2.0

     total cpu time spent up to now is      210.0 secs

     total energy              =     -99.59218243 Ry
     Harris-Foulkes estimate   =     -99.59321123 Ry
     estimated scf accuracy    <       0.00733618 Ry

     iteration #  8     ecut=    80.00 Ry     beta=0.30
     Davidson diagonalization with overlap
     ethr =  1.42E-05,  avg # of iterations =  2.3

     total cpu time spent up to now is      236.1 secs

     total energy              =     -99.59269236 Ry
     Harris-Foulkes estimate   =     -99.59268543 Ry
     estimated scf accuracy    <       0.00011670 Ry

     iteration #  9     ecut=    80.00 Ry     beta=0.30
     Davidson diagonalization with overlap
     ethr =  4.86E-07,  avg # of iterations =  1.9

     total cpu time spent up to now is      259.9 secs

     total energy              =     -99.59266736 Ry
     Harris-Foulkes estimate   =     -99.59269511 Ry
     estimated scf accuracy    <       0.00015526 Ry

     iteration # 10     ecut=    80.00 Ry     beta=0.30
     Davidson diagonalization with overlap
     ethr =  4.86E-07,  avg # of iterations =  2.0

     total cpu time spent up to now is      285.2 secs

     total energy              =     -99.59268523 Ry
     Harris-Foulkes estimate   =     -99.59268508 Ry
     estimated scf accuracy    <       0.00000158 Ry

     iteration # 11     ecut=    80.00 Ry     beta=0.30
     Davidson diagonalization with overlap
     ethr =  6.58E-09,  avg # of iterations =  3.0

     total cpu time spent up to now is      312.6 secs

     total energy              =     -99.59268533 Ry
     Harris-Foulkes estimate   =     -99.59268557 Ry
     estimated scf accuracy    <       0.00000351 Ry

     iteration # 12     ecut=    80.00 Ry     beta=0.30
     Davidson diagonalization with overlap
     ethr =  6.58E-09,  avg # of iterations =  1.0

     total cpu time spent up to now is      334.3 secs

     total energy              =     -99.59268498 Ry
     Harris-Foulkes estimate   =     -99.59268537 Ry
     estimated scf accuracy    <       0.00000173 Ry

     iteration # 13     ecut=    80.00 Ry     beta=0.30
     Davidson diagonalization with overlap
     ethr =  6.58E-09,  avg # of iterations =  2.0

     total cpu time spent up to now is      359.7 secs

     End of self-consistent calculation

          k = 0.0000 0.0000 0.0000 ( 15989 PWs)   bands (ev):

    -6.7637  -5.3628  -3.1793  -0.2631   1.4837   1.4837   1.9354   2.7751
     2.7751   2.8600   2.8600   4.3025   4.3025   4.8197   4.8197   5.9345

          k = 0.0000 0.0625 0.0000 ( 15935 PWs)   bands (ev):

    -6.7280  -5.3274  -3.1442  -0.2283   0.9203   1.5165   1.9687   2.2294
     2.8079   2.9201   3.4711   4.2618   4.4004   4.8524   4.8792   5.9653

          k = 0.0000 0.1250 0.0000 ( 15919 PWs)   bands (ev):

    -6.6210  -5.2212  -3.0392  -0.1242   0.0224   1.3564   1.6149   2.0685
     2.9062   3.0246   3.4447   4.3218   4.6945   4.9503   5.8901   6.0932

          k = 0.0000 0.1875 0.0000 ( 15936 PWs)   bands (ev):

    -6.4427  -5.0444  -2.8643  -0.8725   0.0490   0.4756   1.7790   2.2348
     2.5829   3.0701   3.1932   4.5667   5.1136   5.3598   5.8092   6.2017

          k = 0.0000 0.2500 0.0000 ( 15934 PWs)   bands (ev):

    -6.1936  -4.7971  -2.6198  -1.7206  -0.3626   0.2909   1.7586   2.0086
     2.4674   3.2995   3.4204   4.6068   4.8042   5.3421   6.2119   6.3790

          k = 0.0000 0.3125 0.0000 ( 15928 PWs)   bands (ev):

    -5.8738  -4.4799  -2.5107  -2.3061  -1.1448   0.6010   0.9878   2.3040
     2.7658   3.5946   3.6082   3.9873   5.0802   5.4566   5.6359   5.9787

          k = 0.0000 0.3750 0.0000 ( 15942 PWs)   bands (ev):

    -5.4840  -4.0931  -3.2382  -1.9238  -1.8658   0.2765   0.9782   2.6651
     3.1136   3.1295   3.9551   4.1635   4.7668   5.1225   5.6290   5.9949

          k = 0.0000 0.4375 0.0000 ( 15946 PWs)   bands (ev):

    -5.0247  -3.9007  -3.6374  -2.5226  -1.4734  -0.3720   1.4215   2.4966
     3.0919   3.5574   4.1427   4.3813   4.5804   4.5907   5.4303   5.5994

          k = 0.0000-0.5000 0.0000 ( 15930 PWs)   bands (ev):

    -4.4966  -4.4966  -3.1136  -3.1136  -0.9557  -0.9557   1.9288   1.9288
     3.5844   3.5844   4.0470   4.0470   4.8730   4.8730   5.0658   5.0658

          k = 0.0625 0.0625 0.0000 ( 15935 PWs)   bands (ev):

    -6.6923  -5.2920  -3.1092  -0.1936   0.9531   0.9531   2.0020   2.2715
     2.2715   3.5309   3.5309   4.3349   4.3349   4.9281   4.9281   5.9950

          k = 0.0625 0.1250 0.0000 ( 15930 PWs)   bands (ev):

    -6.5853  -5.1858  -3.0042  -0.0896   0.0560   1.0471   1.4015   2.1018
     2.3732   3.4821   3.6394   4.4341   4.5757   5.0599   5.9613   6.0794

          k = 0.0625 0.1875 0.0000 ( 15939 PWs)   bands (ev):

    -6.4071  -5.0090  -2.8293  -0.8385   0.0835   0.5070   1.2268   2.2680
     2.5283   2.6298   3.8048   4.5853   5.1421   5.4565   5.8497   6.1630

          k = 0.0625 0.2500 0.0000 ( 15933 PWs)   bands (ev):

    -6.1580  -4.7619  -2.5849  -1.6862  -0.3289   0.3253   1.4576   1.7917
     2.5003   2.7743   4.0126   4.5869   4.9321   5.3823   5.6573   6.5050

          k = 0.0625 0.3125 0.0000 ( 15927 PWs)   bands (ev):

    -5.8383  -4.4447  -2.4760  -2.2713  -1.1106   0.6352   1.0215   1.7562
     2.7984   3.0716   3.8154   4.4117   4.9270   5.1591   5.6078   6.0522

          k = 0.0625 0.3750 0.0000 ( 15933 PWs)   bands (ev):

    -5.4486  -4.0580  -3.2034  -1.8891  -1.8313   0.3106   1.0121   2.1193
     3.1613   3.1660   3.4340   4.2425   4.7463   5.2359   5.5107   5.5521

          k = 0.0625 0.4375 0.0000 ( 15962 PWs)   bands (ev):

    -4.9894  -3.8657  -3.6025  -2.4880  -1.4388  -0.3377   1.4546   2.4672
     2.6246   3.5869   3.6186   3.8570   4.6491   4.9318   5.1669   5.9317

          k = 0.0625-0.5000 0.0000 ( 15958 PWs)   bands (ev):

    -4.4615  -4.4615  -3.0788  -3.0788  -0.9213  -0.9213   1.9598   1.9598
     3.0596   3.0596   4.0545   4.0545   4.3961   4.3961   5.6468   5.6468

          k = 0.1250 0.1250 0.0000 ( 15947 PWs)   bands (ev):

    -6.4784  -5.0797  -2.8993   0.0143   0.1562   0.1562   1.4989   1.4989
     2.2014   3.5805   3.5805   4.7088   4.7088   6.0713   6.0713   6.0973

          k = 0.1250 0.1875 0.0000 ( 15912 PWs)   bands (ev):

    -6.3003  -4.9031  -2.7246  -0.7364   0.1871   0.3135   0.6295   1.6659
     2.3672   2.7182   3.7394   4.8630   5.5792   5.5922   5.8573   6.2546

          k = 0.1250 0.2500 0.0000 ( 15943 PWs)   bands (ev):

    -6.0514  -4.6561  -2.4803  -1.5832  -0.2298   0.4285   0.5712   1.8632
     1.9319   2.5990   3.9424   4.7336   4.8167   5.1847   6.1401   6.3553

          k = 0.1250 0.3125 0.0000 ( 15949 PWs)   bands (ev):

    -5.7320  -4.3392  -2.3722  -2.1670  -1.0083   0.7376   0.8712   1.1224
     2.2038   2.8957   3.8761   4.0720   4.3915   5.3950   5.4439   5.9582

          k = 0.1250 0.3750 0.0000 ( 15951 PWs)   bands (ev):

    -5.3425  -3.9528  -3.0990  -1.7851  -1.7280   0.4125   1.1133   1.2396
     2.5700   3.2552   3.2588   3.3827   4.6870   4.7108   5.3426   5.7969

          k = 0.1250 0.4375 0.0000 ( 15939 PWs)   bands (ev):

    -4.8836  -3.7608  -3.4976  -2.3840  -1.3352  -0.2351   1.5528   1.6715
     2.6430   2.7561   3.0007   3.6570   4.1103   4.7451   5.1022   6.1318

          k = 0.1250-0.5000 0.0000 ( 15934 PWs)   bands (ev):

    -4.3561  -4.3561  -2.9743  -2.9743  -0.8182  -0.8182   2.0162   2.0162
     2.2328   2.2328   3.4867   3.4867   4.2079   4.2079   5.5872   5.5873

          k = 0.1875 0.1875 0.0000 ( 15931 PWs)   bands (ev):

    -6.1225  -4.7266  -2.5501  -0.5673  -0.5673   0.3595   0.7878   0.7878
     2.5324   2.8813   2.8813   4.7683   5.6511   5.6511   6.0952   6.1273

          k = 0.1875 0.2500 0.0000 ( 15925 PWs)   bands (ev):

    -5.8738  -4.4799  -2.3062  -1.4118  -0.3424  -0.0353   0.6000   1.0229
     2.0607   2.7627   3.1060   3.9650   4.9097   5.2927   5.8556   6.3326

          k = 0.1875 0.3125 0.0000 ( 15944 PWs)   bands (ev):

    -5.5548  -4.1634  -2.1995  -1.9933  -0.8401  -0.0123   0.9076   1.2772
     1.3416   3.0556   3.2119   3.3713   4.2091   4.5461   5.8854   6.5345

          k = 0.1875 0.3750 0.0000 ( 15947 PWs)   bands (ev):

    -5.1658  -3.7776  -2.9251  -1.6119  -1.5563   0.3573   0.5820   1.2800
     1.6976   2.5187   3.3499   3.3907   3.8809   3.9088   5.4548   5.9061

          k = 0.1875 0.4375 0.0000 ( 15942 PWs)   bands (ev):

    -4.7075  -3.5861  -3.3230  -2.2110  -1.1627  -0.0644   0.7954   1.6834
     1.9212   2.1329   2.7930   3.1834   3.8834   4.2659   4.8903   5.2973

          k = 0.1875-0.5000 0.0000 ( 15954 PWs)   bands (ev):

    -4.1806  -4.1806  -2.8004  -2.8004  -0.6465  -0.6465   1.2966   1.2966
     2.2400   2.2400   2.6318   2.6318   4.3541   4.3541   4.7466   4.7466

          k = 0.2500 0.2500 0.0000 ( 15961 PWs)   bands (ev):

    -5.6256  -4.2337  -2.0628  -1.1730  -1.1730   0.1895   0.1895   0.8390
     2.2915   2.2915   2.9890   3.1525   4.4884   5.1202   5.1202   6.4762

          k = 0.2500 0.3125 0.0000 ( 15970 PWs)   bands (ev):

    -5.3071  -3.9178  -1.9582  -1.7506  -0.8788  -0.5756   0.4938   1.1432
     1.5268   2.3950   2.5835   3.2574   3.7605   4.4034   5.3531   5.7875

          k = 0.2500 0.3750 0.0000 ( 15943 PWs)   bands (ev):

    -4.9188  -3.5326  -2.6822  -1.3699  -1.3185  -0.4783   0.8132   0.8729
     1.4824   1.7277   2.9138   2.9944   3.6868   3.7584   5.1150   5.4313

          k = 0.2500 0.4375 0.0000 ( 15971 PWs)   bands (ev):

    -4.4613  -3.3419  -3.0789  -1.9695  -0.9216  -0.0390   0.1742   1.0386
     1.3058   1.9687   2.3768   2.9480   3.5297   4.0907   4.4988   5.0614

          k = 0.2500-0.5000 0.0000 ( 15944 PWs)   bands (ev):

    -3.9353  -3.9353  -2.5574  -2.5574  -0.4065  -0.4065   0.4686   0.4686
     1.8099   1.8099   2.4561   2.4561   3.9520   3.9520   4.5615   4.5615

          k = 0.3125 0.3125 0.0000 ( 15983 PWs)   bands (ev):

    -4.9894  -3.6026  -1.6494  -1.6494  -1.4391  -0.2821  -0.2821   1.4152
     1.6624   1.8260   1.8260   2.9306   3.6211   4.6720   4.6720   5.0532

          k = 0.3125 0.3750 0.0000 ( 15969 PWs)   bands (ev):

    -4.6019  -3.2183  -2.3707  -1.2852  -1.0595  -0.9846   0.0916   0.9081
     1.1229   1.8325   2.1860   2.2474   3.9586   4.0131   4.3728   4.9667

          k = 0.3125 0.4375 0.0000 ( 15954 PWs)   bands (ev):

    -4.1454  -3.0286  -2.7658  -1.6618  -0.8152  -0.6124   0.2701   0.4781
     0.5354   1.6133   2.2528   2.5828   3.4307   3.7603   4.3632   5.1038

          k = 0.3125-0.5000 0.0000 ( 15916 PWs)   bands (ev):

    -3.6206  -3.6206  -2.2459  -2.2459  -0.3064  -0.3064  -0.0988  -0.0988
     1.0410   1.0410   2.6781   2.6781   3.2722   3.2722   4.7973   4.7973

          k = 0.3750 0.3750 0.0000 ( 15968 PWs)   bands (ev):

    -4.2155  -2.8353  -1.9918  -1.9918  -0.6811  -0.6215  -0.6215   0.2036
     1.4908   1.4908   1.5475   2.1849   3.6960   4.2971   4.3466   4.3466

          k = 0.3750 0.4375 0.0000 ( 15960 PWs)   bands (ev):

    -3.7603  -2.6469  -2.3845  -1.5576  -1.2587  -0.4408  -0.2357  -0.1786
     0.8523   0.9078   1.9190   2.5427   3.1423   3.7499   4.6650   4.7063

          k = 0.3750-0.5000 0.0000 ( 15986 PWs)   bands (ev):

    -3.2370  -3.2370  -1.8684  -1.8684  -1.0186  -1.0186   0.2754   0.2754
     0.3324   0.3324   2.3828   2.3828   3.2325   3.2325   4.9065   4.9065

          k = 0.4375 0.4375 0.0000 ( 15976 PWs)   bands (ev):

    -3.3066  -2.1980  -2.1980  -1.9374  -1.0866  -0.8261  -0.8261   0.2075
     0.2648   1.2888   1.2888   2.3160   3.1662   4.1497   4.1497   4.8406

          k = 0.4375-0.5000 0.0000 ( 15978 PWs)   bands (ev):

    -2.7853  -2.7853  -1.6942  -1.6942  -1.3962  -1.3962  -0.3142  -0.3142
     0.7167   0.7167   1.7849   1.7849   3.6177   3.6177   4.5754   4.5754

          k =-0.5000-0.5000 0.0000 ( 15928 PWs)   bands (ev):

    -2.2669  -2.2669  -2.2669  -2.2669  -0.8945  -0.8945  -0.8945  -0.8945
     1.2213   1.2213   1.2213   1.2213   4.0839   4.0839   4.0839   4.0839

     the Fermi energy is     3.9758 ev

!    total energy              =     -99.59268509 Ry
     Harris-Foulkes estimate   =     -99.59268524 Ry
     estimated scf accuracy    <       0.00000016 Ry

     The total energy is the sum of the following terms:

     one-electron contribution =     -29.64076875 Ry
     hartree contribution      =      23.28415078 Ry
     xc contribution           =     -79.84354232 Ry
     ewald contribution        =     -13.39266434 Ry
     smearing contrib. (-TS)   =       0.00013955 Ry

     convergence has been achieved in  13 iterations

     Forces acting on atoms (Ry/au):

     atom    1 type  1   force =     0.00000000    0.00000000   -0.00636173
     atom    2 type  1   force =     0.00000000    0.00000000   -0.00636175
     atom    3 type  1   force =     0.00000000    0.00000000    0.00113871
     atom    4 type  1   force =     0.00000000    0.00000000    0.00113871
     atom    5 type  1   force =     0.00000000    0.00000000   -0.00113868
     atom    6 type  1   force =     0.00000000    0.00000000   -0.00113867
     atom    7 type  1   force =     0.00000000    0.00000000    0.00636170
     atom    8 type  1   force =     0.00000000    0.00000000    0.00636170

     Total force =     0.012926     Total SCF correction =     0.000638


     entering subroutine stress ...

          total   stress  (Ry/bohr**3)                   (kbar)     P=  -15.59
  -0.00019201   0.00000000   0.00000000        -28.25      0.00      0.00
   0.00000000  -0.00019201   0.00000000          0.00    -28.25      0.00
   0.00000000   0.00000000   0.00006605          0.00      0.00      9.72


     BFGS Geometry Optimization

     number of scf cycles    =   1
     number of bfgs steps    =   0

     energy   new            =     -99.5926850858 Ry

     new trust radius        =       0.0063617497 bohr
     new conv_thr            =       0.0000010000 Ry


ATOMIC_POSITIONS (crystal)
Al       0.000000000   0.000000000  -0.000278840
Al       0.500000000   0.500000000  -0.000278841
Al       0.500000000   0.000000000   0.166716577
Al       0.000000000   0.500000000   0.166716577
Al       0.000000000   0.000000000   0.333283424
Al       0.500000000   0.500000000   0.333283424
Al       0.500000000   0.000000000   0.500278839
Al       0.000000000   0.500000000   0.500278839



     Writing output data file Al_100_2_1.save
     NEW-OLD atomic charge density approx. for the potential

     total cpu time spent up to now is      372.5 secs

     per-process dynamical memory:   228.0 Mb

     Self-consistent Calculation

     iteration #  1     ecut=    80.00 Ry     beta=0.30
     Davidson diagonalization with overlap
     ethr =  1.00E-06,  avg # of iterations =  2.8

     total cpu time spent up to now is      403.4 secs

     total energy              =     -99.59284733 Ry
     Harris-Foulkes estimate   =     -99.59284900 Ry
     estimated scf accuracy    <       0.00002555 Ry

     iteration #  2     ecut=    80.00 Ry     beta=0.30
     Davidson diagonalization with overlap
     ethr =  1.06E-07,  avg # of iterations =  1.6

     total cpu time spent up to now is      425.8 secs

     total energy              =     -99.59284182 Ry
     Harris-Foulkes estimate   =     -99.59284833 Ry
     estimated scf accuracy    <       0.00001880 Ry

     iteration #  3     ecut=    80.00 Ry     beta=0.30
     Davidson diagonalization with overlap
     ethr =  7.84E-08,  avg # of iterations =  2.1

     total cpu time spent up to now is      451.6 secs

     total energy              =     -99.59284526 Ry
     Harris-Foulkes estimate   =     -99.59284719 Ry
     estimated scf accuracy    <       0.00001010 Ry

     iteration #  4     ecut=    80.00 Ry     beta=0.30
     Davidson diagonalization with overlap
     ethr =  4.21E-08,  avg # of iterations =  1.6

     total cpu time spent up to now is      473.7 secs

     End of self-consistent calculation

          k = 0.0000 0.0000 0.0000 ( 15989 PWs)   bands (ev):

    -6.7574  -5.3530  -3.1802  -0.2660   1.4903   1.4903   1.9313   2.7863
     2.7863   2.8664   2.8664   4.3118   4.3118   4.8187   4.8187   5.9279

          k = 0.0000 0.0625 0.0000 ( 15935 PWs)   bands (ev):

    -6.7217  -5.3175  -3.1451  -0.2313   0.9268   1.5231   1.9646   2.2401
     2.8191   2.9265   3.4777   4.2653   4.4049   4.8513   4.8890   5.9588

          k = 0.0000 0.1250 0.0000 ( 15919 PWs)   bands (ev):

    -6.6147  -5.2113  -3.0401  -0.1272   0.0288   1.3668   1.6215   2.0645
     2.9174   3.0310   3.4444   4.3297   4.7016   4.9493   5.8985   6.0929

          k = 0.0000 0.1875 0.0000 ( 15936 PWs)   bands (ev):

    -6.4364  -5.0345  -2.8652  -0.8661   0.0460   0.4859   1.7856   2.2308
     2.5823   3.0813   3.1996   4.5755   5.1125   5.3569   5.8157   6.1957

          k = 0.0000 0.2500 0.0000 ( 15934 PWs)   bands (ev):

    -6.1873  -4.7872  -2.6207  -1.7142  -0.3524   0.2880   1.7580   2.0153
     2.4634   3.3108   3.4268   4.6038   4.8130   5.3411   6.2186   6.3741

          k = 0.0000 0.3125 0.0000 ( 15928 PWs)   bands (ev):

    -5.8675  -4.4700  -2.5043  -2.3070  -1.1347   0.5981   0.9871   2.3106
     2.7619   3.6058   3.6121   3.9868   5.0883   5.4633   5.6348   5.9765

          k = 0.0000 0.3750 0.0000 ( 15942 PWs)   bands (ev):

    -5.4777  -4.0832  -3.2319  -1.9246  -1.8557   0.2758   0.9754   2.6717
     3.1115   3.1256   3.9664   4.1689   4.7735   5.1217   5.6356   5.9938

          k = 0.0000 0.4375 0.0000 ( 15946 PWs)   bands (ev):

    -5.0184  -3.8944  -3.6275  -2.5126  -1.4742  -0.3727   1.4187   2.4941
     3.0985   3.5536   4.1494   4.3926   4.5864   4.5873   5.4416   5.6055

          k = 0.0000-0.5000 0.0000 ( 15930 PWs)   bands (ev):

    -4.4903  -4.4903  -3.1037  -3.1037  -0.9565  -0.9565   1.9261   1.9261
     3.5911   3.5911   4.0434   4.0434   4.8844   4.8844   5.0719   5.0719

          k = 0.0625 0.0625 0.0000 ( 15935 PWs)   bands (ev):

    -6.6860  -5.2821  -3.1101  -0.1966   0.9596   0.9596   1.9979   2.2822
     2.2822   3.5374   3.5374   4.3343   4.3343   4.9374   4.9374   5.9885

          k = 0.0625 0.1250 0.0000 ( 15930 PWs)   bands (ev):

    -6.5790  -5.1759  -3.0051  -0.0925   0.0624   1.0537   1.4119   2.0977
     2.3840   3.4815   3.6459   4.4332   4.5824   5.0690   5.9710   6.0732

          k = 0.0625 0.1875 0.0000 ( 15939 PWs)   bands (ev):

    -6.4008  -4.9991  -2.8302  -0.8321   0.0806   0.5173   1.2333   2.2640
     2.5382   2.6301   3.8113   4.5843   5.1514   5.4537   5.8563   6.1601

          k = 0.0625 0.2500 0.0000 ( 15933 PWs)   bands (ev):

    -6.1517  -4.7520  -2.5858  -1.6798  -0.3188   0.3224   1.4641   1.7911
     2.4963   2.7849   4.0188   4.5845   4.9309   5.3915   5.6635   6.4995

          k = 0.0625 0.3125 0.0000 ( 15927 PWs)   bands (ev):

    -5.8320  -4.4348  -2.4697  -2.2722  -1.1005   0.6323   1.0208   1.7627
     2.7945   3.0823   3.8140   4.4166   4.9335   5.1582   5.6141   6.0525

          k = 0.0625 0.3750 0.0000 ( 15933 PWs)   bands (ev):

    -5.4423  -4.0481  -3.1970  -1.8899  -1.8212   0.3098   1.0092   2.1258
     3.1575   3.1634   3.4448   4.2491   4.7523   5.2331   5.5098   5.5631

          k = 0.0625 0.4375 0.0000 ( 15962 PWs)   bands (ev):

    -4.9831  -3.8594  -3.5925  -2.4780  -1.4396  -0.3385   1.4518   2.4689
     2.6267   3.5832   3.6251   3.8675   4.6460   4.9427   5.1731   5.9308

          k = 0.0625-0.5000 0.0000 ( 15958 PWs)   bands (ev):

    -4.4551  -4.4551  -3.0688  -3.0688  -0.9221  -0.9221   1.9571   1.9571
     3.0661   3.0661   4.0519   4.0519   4.4059   4.4059   5.6531   5.6531

          k = 0.1250 0.1250 0.0000 ( 15947 PWs)   bands (ev):

    -6.4721  -5.0698  -2.9002   0.0113   0.1627   0.1627   1.5094   1.5094
     2.1974   3.5798   3.5798   4.7153   4.7153   6.0810   6.0810   6.0942

          k = 0.1250 0.1875 0.0000 ( 15912 PWs)   bands (ev):

    -6.2940  -4.8932  -2.7255  -0.7300   0.1842   0.3202   0.6396   1.6764
     2.3633   2.7174   3.7387   4.8693   5.5766   5.5982   5.8639   6.2637

          k = 0.1250 0.2500 0.0000 ( 15943 PWs)   bands (ev):

    -6.0451  -4.6462  -2.4812  -1.5768  -0.2196   0.4256   0.5777   1.8681
     1.9367   2.5950   3.9415   4.7325   4.8232   5.1895   6.1510   6.3610

          k = 0.1250 0.3125 0.0000 ( 15949 PWs)   bands (ev):

    -5.7257  -4.3293  -2.3659  -2.1679  -0.9982   0.7347   0.8777   1.1218
     2.2141   2.8919   3.8739   4.0785   4.3905   5.4058   5.4500   5.9561

          k = 0.1250 0.3750 0.0000 ( 15951 PWs)   bands (ev):

    -5.3362  -3.9429  -3.0926  -1.7859  -1.7179   0.4118   1.1105   1.2461
     2.5804   3.2514   3.2561   3.3891   4.6863   4.7215   5.3396   5.8032

          k = 0.1250 0.4375 0.0000 ( 15939 PWs)   bands (ev):

    -4.8773  -3.7545  -3.4876  -2.3740  -1.3360  -0.2359   1.5501   1.6780
     2.6402   2.7624   3.0111   3.6542   4.1200   4.7418   5.1015   6.1312

          k = 0.1250-0.5000 0.0000 ( 15934 PWs)   bands (ev):

    -4.3498  -4.3498  -2.9644  -2.9644  -0.8190  -0.8190   2.0161   2.0161
     2.2365   2.2365   3.4967   3.4967   4.2049   4.2049   5.5866   5.5866

          k = 0.1875 0.1875 0.0000 ( 15931 PWs)   bands (ev):

    -6.1162  -4.7167  -2.5510  -0.5609  -0.5609   0.3565   0.7981   0.7981
     2.5284   2.8806   2.8806   4.7747   5.6498   5.6498   6.1060   6.1326

          k = 0.1875 0.2500 0.0000 ( 15925 PWs)   bands (ev):

    -5.8675  -4.4701  -2.3071  -1.4054  -0.3358  -0.0253   0.5971   1.0333
     2.0599   2.7587   3.1052   3.9715   4.9073   5.3034   5.8537   6.3388

          k = 0.1875 0.3125 0.0000 ( 15944 PWs)   bands (ev):

    -5.5485  -4.1535  -2.1931  -1.9942  -0.8301  -0.0059   0.9048   1.2796
     1.3487   3.0518   3.2184   3.3703   4.2067   4.5567   5.8840   6.5337

          k = 0.1875 0.3750 0.0000 ( 15947 PWs)   bands (ev):

    -5.1595  -3.7676  -2.9188  -1.6128  -1.5463   0.3637   0.5813   1.2773
     1.7079   2.5250   3.3474   3.3879   3.8905   3.9078   5.4522   5.9055

          k = 0.1875 0.4375 0.0000 ( 15942 PWs)   bands (ev):

    -4.7012  -3.5798  -3.3130  -2.2010  -1.1635  -0.0651   0.8019   1.6829
     1.9253   2.1432   2.7902   3.1931   3.8804   4.2652   4.8871   5.2967

          k = 0.1875-0.5000 0.0000 ( 15954 PWs)   bands (ev):

    -4.1743  -4.1743  -2.7904  -2.7904  -0.6473  -0.6473   1.3031   1.3031
     2.2371   2.2371   2.6421   2.6421   4.3507   4.3507   4.7460   4.7460

          k = 0.2500 0.2500 0.0000 ( 15961 PWs)   bands (ev):

    -5.6193  -4.2238  -2.0637  -1.1666  -1.1666   0.1997   0.1997   0.8361
     2.2907   2.2907   2.9852   3.1589   4.4989   5.1179   5.1179   6.4754

          k = 0.2500 0.3125 0.0000 ( 15970 PWs)   bands (ev):

    -5.3008  -3.9079  -1.9518  -1.7514  -0.8722  -0.5657   0.5040   1.1405
     1.5260   2.4013   2.5827   3.2545   3.7701   4.4010   5.3512   5.7870

          k = 0.2500 0.3750 0.0000 ( 15943 PWs)   bands (ev):

    -4.9125  -3.5227  -2.6759  -1.3708  -1.3084  -0.4719   0.8141   0.8814
     1.4816   1.7320   2.9129   3.0041   3.6839   3.7559   5.1144   5.4298

          k = 0.2500 0.4375 0.0000 ( 15971 PWs)   bands (ev):

    -4.4550  -3.3356  -3.0689  -1.9595  -0.9225  -0.0325   0.1735   1.0451
     1.3160   1.9658   2.3870   2.9455   3.5288   4.0873   4.4982   5.0587

          k = 0.2500-0.5000 0.0000 ( 15944 PWs)   bands (ev):

    -3.9290  -3.9290  -2.5474  -2.5474  -0.4073  -0.4073   0.4750   0.4750
     1.8201   1.8201   2.4533   2.4533   3.9513   3.9513   4.5583   4.5583

          k = 0.3125 0.3125 0.0000 ( 15983 PWs)   bands (ev):

    -4.9830  -3.5927  -1.6430  -1.6430  -1.4400  -0.2720  -0.2720   1.4144
     1.6668   1.8252   1.8252   2.9403   3.6181   4.6697   4.6697   5.0526

          k = 0.3125 0.3750 0.0000 ( 15969 PWs)   bands (ev):

    -4.5956  -3.2084  -2.3644  -1.2786  -1.0603  -0.9747   0.1017   0.9146
     1.1221   1.8295   2.1852   2.2576   3.9552   4.0106   4.3722   4.9648

          k = 0.3125 0.4375 0.0000 ( 15954 PWs)   bands (ev):

    -4.1391  -3.0223  -2.7558  -1.6518  -0.8088  -0.6132   0.2765   0.4781
     0.5448   1.6235   2.2499   2.5818   3.4283   3.7597   4.3600   5.1023

          k = 0.3125-0.5000 0.0000 ( 15916 PWs)   bands (ev):

    -3.6143  -3.6143  -2.2360  -2.2360  -0.2999  -0.2999  -0.0996  -0.0996
     1.0512   1.0512   2.6756   2.6756   3.2713   3.2713   4.7947   4.7947

          k = 0.3750 0.3750 0.0000 ( 15968 PWs)   bands (ev):

    -4.2092  -2.8254  -1.9854  -1.9854  -0.6820  -0.6115  -0.6115   0.2100
     1.4901   1.4901   1.5577   2.1820   3.6953   4.2938   4.3442   4.3442

          k = 0.3750 0.4375 0.0000 ( 15960 PWs)   bands (ev):

    -3.7540  -2.6405  -2.3745  -1.5510  -1.2489  -0.4344  -0.2364  -0.1685
     0.8516   0.9180   1.9182   2.5401   3.1414   3.7474   4.6623   4.7044

          k = 0.3750-0.5000 0.0000 ( 15986 PWs)   bands (ev):

    -3.2307  -3.2307  -1.8584  -1.8584  -1.0122  -1.0122   0.2749   0.2749
     0.3423   0.3423   2.3818   2.3818   3.2301   3.2301   4.9050   4.9050

          k = 0.4375 0.4375 0.0000 ( 15976 PWs)   bands (ev):

    -3.3003  -2.1917  -2.1917  -1.9274  -1.0802  -0.8161  -0.8161   0.2069
     0.2748   1.2880   1.2880   2.3150   3.1638   4.1474   4.1474   4.8391

          k = 0.4375-0.5000 0.0000 ( 15978 PWs)   bands (ev):

    -2.7789  -2.7789  -1.6876  -1.6876  -1.3864  -1.3864  -0.3041  -0.3041
     0.7159   0.7159   1.7841   1.7841   3.6151   3.6151   4.5735   4.5735

          k =-0.5000-0.5000 0.0000 ( 15928 PWs)   bands (ev):

    -2.2605  -2.2605  -2.2605  -2.2605  -0.8844  -0.8844  -0.8844  -0.8844
     1.2205   1.2205   1.2205   1.2205   4.0816   4.0816   4.0816   4.0816

     the Fermi energy is     3.9772 ev

!    total energy              =     -99.59284565 Ry
     Harris-Foulkes estimate   =     -99.59284603 Ry
     estimated scf accuracy    <       0.00000046 Ry

     The total energy is the sum of the following terms:

     one-electron contribution =     -29.47232102 Ry
     hartree contribution      =      23.20181424 Ry
     xc contribution           =     -79.84019861 Ry
     ewald contribution        =     -13.48227831 Ry
     smearing contrib. (-TS)   =       0.00013806 Ry

     convergence has been achieved in   4 iterations

     Forces acting on atoms (Ry/au):

     atom    1 type  1   force =     0.00000000    0.00000000   -0.00590966
     atom    2 type  1   force =     0.00000000    0.00000000   -0.00590964
     atom    3 type  1   force =     0.00000000    0.00000000    0.00064755
     atom    4 type  1   force =     0.00000000    0.00000000    0.00064755
     atom    5 type  1   force =     0.00000000    0.00000000   -0.00064763
     atom    6 type  1   force =     0.00000000    0.00000000   -0.00064765
     atom    7 type  1   force =     0.00000000    0.00000000    0.00590974
     atom    8 type  1   force =     0.00000000    0.00000000    0.00590974

     Total force =     0.011890     Total SCF correction =     0.000973


     entering subroutine stress ...

          total   stress  (Ry/bohr**3)                   (kbar)     P=  -15.99
  -0.00019392   0.00000000   0.00000000        -28.53      0.00      0.00
   0.00000000  -0.00019392   0.00000000          0.00    -28.53      0.00
   0.00000000   0.00000000   0.00006178          0.00      0.00      9.09


     number of scf cycles    =   2
     number of bfgs steps    =   1

     energy   old            =     -99.5926850858 Ry
     energy   new            =     -99.5928456461 Ry

     CASE: energy  _new < energy  _old


     WARNING: bfgs curvature condition failed, Theta= 0.872
     new trust radius        =       0.0069979247 bohr
     new conv_thr            =       0.0000000161 Ry


ATOMIC_POSITIONS (crystal)
Al       0.000000000   0.000000000  -0.000585561
Al       0.500000000   0.500000000  -0.000585562
Al       0.500000000   0.000000000   0.166755883
Al       0.000000000   0.500000000   0.166755883
Al       0.000000000   0.000000000   0.333244116
Al       0.500000000   0.500000000   0.333244115
Al       0.500000000   0.000000000   0.500585563
Al       0.000000000   0.500000000   0.500585563



     Writing output data file Al_100_2_1.save
     NEW-OLD atomic charge density approx. for the potential

     total cpu time spent up to now is      485.8 secs

     per-process dynamical memory:   227.8 Mb

     Self-consistent Calculation

     iteration #  1     ecut=    80.00 Ry     beta=0.30
     Davidson diagonalization with overlap
     ethr =  1.00E-06,  avg # of iterations =  3.0

     total cpu time spent up to now is      520.1 secs

     total energy              =     -99.59301128 Ry
     Harris-Foulkes estimate   =     -99.59301514 Ry
     estimated scf accuracy    <       0.00006503 Ry

     iteration #  2     ecut=    80.00 Ry     beta=0.30
     Davidson diagonalization with overlap
     ethr =  2.71E-07,  avg # of iterations =  1.1

     total cpu time spent up to now is      542.0 secs

     total energy              =     -99.59300033 Ry
     Harris-Foulkes estimate   =     -99.59301221 Ry
     estimated scf accuracy    <       0.00004273 Ry

     iteration #  3     ecut=    80.00 Ry     beta=0.30
     Davidson diagonalization with overlap
     ethr =  1.78E-07,  avg # of iterations =  2.0

     total cpu time spent up to now is      568.0 secs

     total energy              =     -99.59300735 Ry
     Harris-Foulkes estimate   =     -99.59300933 Ry
     estimated scf accuracy    <       0.00001179 Ry

     iteration #  4     ecut=    80.00 Ry     beta=0.30
     Davidson diagonalization with overlap
     ethr =  4.91E-08,  avg # of iterations =  1.0

     total cpu time spent up to now is      589.4 secs

     total energy              =     -99.59300789 Ry
     Harris-Foulkes estimate   =     -99.59300810 Ry
     estimated scf accuracy    <       0.00000099 Ry

     iteration #  5     ecut=    80.00 Ry     beta=0.30
     Davidson diagonalization with overlap
     ethr =  4.14E-09,  avg # of iterations =  3.0

     total cpu time spent up to now is      617.1 secs

     total energy              =     -99.59300822 Ry
     Harris-Foulkes estimate   =     -99.59300819 Ry
     estimated scf accuracy    <       0.00000048 Ry

     iteration #  6     ecut=    80.00 Ry     beta=0.30
     Davidson diagonalization with overlap
     ethr =  2.00E-09,  avg # of iterations =  1.0

     total cpu time spent up to now is      639.1 secs

     total energy              =     -99.59300813 Ry
     Harris-Foulkes estimate   =     -99.59300823 Ry
     estimated scf accuracy    <       0.00000087 Ry

     iteration #  7     ecut=    80.00 Ry     beta=0.30
     Davidson diagonalization with overlap
     ethr =  2.00E-09,  avg # of iterations =  1.0

     total cpu time spent up to now is      660.8 secs

     total energy              =     -99.59300811 Ry
     Harris-Foulkes estimate   =     -99.59300816 Ry
     estimated scf accuracy    <       0.00000021 Ry

     iteration #  8     ecut=    80.00 Ry     beta=0.30
     Davidson diagonalization with overlap
     ethr =  8.76E-10,  avg # of iterations =  2.4

     total cpu time spent up to now is      686.2 secs

     total energy              =     -99.59300815 Ry
     Harris-Foulkes estimate   =     -99.59300815 Ry
     estimated scf accuracy    <       0.00000002 Ry

     iteration #  9     ecut=    80.00 Ry     beta=0.30
     Davidson diagonalization with overlap
     ethr =  8.42E-11,  avg # of iterations =  1.0

     total cpu time spent up to now is      708.2 secs

     total energy              =     -99.59300814 Ry
     Harris-Foulkes estimate   =     -99.59300815 Ry
     estimated scf accuracy    <       0.00000002 Ry

     iteration # 10     ecut=    80.00 Ry     beta=0.30
     Davidson diagonalization with overlap
     ethr =  8.35E-11,  avg # of iterations =  2.2

     total cpu time spent up to now is      733.4 secs

     total energy              =     -99.59300814 Ry
     Harris-Foulkes estimate   =     -99.59300815 Ry
     estimated scf accuracy    <       0.00000003 Ry

     iteration # 11     ecut=    80.00 Ry     beta=0.30
     Davidson diagonalization with overlap
     ethr =  8.35E-11,  avg # of iterations =  1.0

     total cpu time spent up to now is      754.8 secs

     End of self-consistent calculation

          k = 0.0000 0.0000 0.0000 ( 15989 PWs)   bands (ev):

    -6.7509  -5.3436  -3.1818  -0.2702   1.4972   1.4972   1.9262   2.7971
     2.7971   2.8730   2.8730   4.3207   4.3207   4.8169   4.8169   5.9201

          k = 0.0000 0.0625 0.0000 ( 15935 PWs)   bands (ev):

    -6.7152  -5.3081  -3.1468  -0.2354   0.9336   1.5300   1.9595   2.2503
     2.8299   2.9332   3.4845   4.2680   4.4093   4.8496   4.8984   5.9510

          k = 0.0000 0.1250 0.0000 ( 15919 PWs)   bands (ev):

    -6.6081  -5.2019  -3.0417  -0.1313   0.0355   1.3768   1.6284   2.0594
     2.9282   3.0376   3.4434   4.3375   4.7087   4.9476   5.9063   6.0918

          k = 0.0000 0.1875 0.0000 ( 15936 PWs)   bands (ev):

    -6.4299  -5.0251  -2.8668  -0.8595   0.0419   0.4957   1.7924   2.2258
     2.5811   3.0921   3.2062   4.5838   5.1108   5.3530   5.8224   6.1885

          k = 0.0000 0.2500 0.0000 ( 15934 PWs)   bands (ev):

    -6.1807  -4.7778  -2.6223  -1.7076  -0.3427   0.2839   1.7567   2.0221
     2.4584   3.3216   3.4334   4.5997   4.8213   5.3393   6.2255   6.3682

          k = 0.0000 0.3125 0.0000 ( 15928 PWs)   bands (ev):

    -5.8610  -4.4606  -2.4977  -2.3086  -1.1250   0.5940   0.9857   2.3175
     2.7569   3.6158   3.6166   3.9856   5.0959   5.4702   5.6331   5.9733

          k = 0.0000 0.3750 0.0000 ( 15942 PWs)   bands (ev):

    -5.4712  -4.0738  -3.2253  -1.9262  -1.8461   0.2744   0.9714   2.6786
     3.1084   3.1207   3.9773   4.1745   4.7804   5.1199   5.6417   5.9920

          k = 0.0000 0.4375 0.0000 ( 15946 PWs)   bands (ev):

    -5.0118  -3.8878  -3.6180  -2.5031  -1.4757  -0.3742   1.4147   2.4904
     3.1054   3.5488   4.1563   4.4035   4.5829   4.5925   5.4526   5.6118

          k = 0.0000-0.5000 0.0000 ( 15930 PWs)   bands (ev):

    -4.4837  -4.4837  -3.0942  -3.0942  -0.9580  -0.9580   1.9222   1.9222
     3.5980   3.5980   4.0387   4.0387   4.8953   4.8953   5.0782   5.0782

          k = 0.0625 0.0625 0.0000 ( 15935 PWs)   bands (ev):

    -6.6795  -5.2727  -3.1117  -0.2007   0.9664   0.9664   1.9928   2.2925
     2.2925   3.5442   3.5442   4.3331   4.3331   4.9463   4.9463   5.9807

          k = 0.0625 0.1250 0.0000 ( 15930 PWs)   bands (ev):

    -6.5725  -5.1665  -3.0067  -0.0967   0.0691   1.0605   1.4218   2.0927
     2.3943   3.4803   3.6526   4.4317   4.5893   5.0776   5.9801   6.0659

          k = 0.0625 0.1875 0.0000 ( 15939 PWs)   bands (ev):

    -6.3943  -4.9897  -2.8318  -0.8254   0.0765   0.5271   1.2401   2.2589
     2.5473   2.6300   3.8181   4.5826   5.1603   5.4498   5.8630   6.1560

          k = 0.0625 0.2500 0.0000 ( 15933 PWs)   bands (ev):

    -6.1452  -4.7425  -2.5874  -1.6732  -0.3090   0.3183   1.4709   1.7898
     2.4913   2.7952   4.0253   4.5811   4.9289   5.4003   5.6700   6.4927

          k = 0.0625 0.3125 0.0000 ( 15927 PWs)   bands (ev):

    -5.8255  -4.4254  -2.4631  -2.2738  -1.0909   0.6282   1.0195   1.7695
     2.7895   3.0926   3.8116   4.4216   4.9403   5.1567   5.6196   6.0520

          k = 0.0625 0.3750 0.0000 ( 15933 PWs)   bands (ev):

    -5.4358  -4.0387  -3.1905  -1.8915  -1.8117   0.3084   1.0052   2.1326
     3.1526   3.1598   3.4551   4.2559   4.7584   5.2293   5.5083   5.5737

          k = 0.0625 0.4375 0.0000 ( 15962 PWs)   bands (ev):

    -4.9765  -3.8528  -3.5830  -2.4684  -1.4412  -0.3400   1.4479   2.4699
     2.6288   3.5784   3.6319   3.8776   4.6418   4.9532   5.1795   5.9293

          k = 0.0625-0.5000 0.0000 ( 15958 PWs)   bands (ev):

    -4.4486  -4.4486  -3.0593  -3.0593  -0.9236  -0.9236   1.9534   1.9534
     3.0727   3.0727   4.0483   4.0483   4.4153   4.4153   5.6595   5.6595

          k = 0.1250 0.1250 0.0000 ( 15947 PWs)   bands (ev):

    -6.4655  -5.0604  -2.9018   0.0072   0.1694   0.1694   1.5194   1.5194
     2.1923   3.5785   3.5785   4.7220   4.7220   6.0899   6.0902   6.0902

          k = 0.1250 0.1875 0.0000 ( 15912 PWs)   bands (ev):

    -6.2875  -4.8837  -2.7270  -0.7234   0.1801   0.3270   0.6492   1.6864
     2.3582   2.7160   3.7373   4.8759   5.5729   5.6043   5.8708   6.2723

          k = 0.1250 0.2500 0.0000 ( 15943 PWs)   bands (ev):

    -6.0385  -4.6367  -2.4828  -1.5702  -0.2099   0.4215   0.5844   1.8715
     1.9419   2.5900   3.9400   4.7306   4.8299   5.1943   6.1614   6.3656

          k = 0.1250 0.3125 0.0000 ( 15949 PWs)   bands (ev):

    -5.7191  -4.3198  -2.3593  -2.1694  -0.9886   0.7307   0.8844   1.1204
     2.2241   2.8869   3.8707   4.0852   4.3887   5.4161   5.4563   5.9530

          k = 0.1250 0.3750 0.0000 ( 15951 PWs)   bands (ev):

    -5.3297  -3.9334  -3.0861  -1.7875  -1.7083   0.4104   1.1065   1.2528
     2.5904   3.2466   3.2523   3.3958   4.6848   4.7317   5.3356   5.8097

          k = 0.1250 0.4375 0.0000 ( 15939 PWs)   bands (ev):

    -4.8708  -3.7479  -3.4782  -2.3644  -1.3375  -0.2374   1.5462   1.6848
     2.6362   2.7690   3.0210   3.6504   4.1292   4.7375   5.1001   6.1298

          k = 0.1250-0.5000 0.0000 ( 15934 PWs)   bands (ev):

    -4.3432  -4.3432  -2.9548  -2.9548  -0.8205  -0.8205   2.0150   2.0150
     2.2403   2.2403   3.5063   3.5063   4.2008   4.2008   5.5852   5.5852

          k = 0.1875 0.1875 0.0000 ( 15931 PWs)   bands (ev):

    -6.1096  -4.7073  -2.5526  -0.5542  -0.5542   0.3525   0.8079   0.8079
     2.5234   2.8792   2.8792   4.7815   5.6476   5.6476   6.1164   6.1380

          k = 0.1875 0.2500 0.0000 ( 15925 PWs)   bands (ev):

    -5.8610  -4.4606  -2.3087  -1.3988  -0.3289  -0.0158   0.5930   1.0432
     2.0585   2.7538   3.1038   3.9782   4.9039   5.3137   5.8508   6.3452

          k = 0.1875 0.3125 0.0000 ( 15944 PWs)   bands (ev):

    -5.5420  -4.1441  -2.1865  -1.9958  -0.8204   0.0008   0.9008   1.2807
     1.3561   3.0469   3.2250   3.3687   4.2032   4.5668   5.8816   6.5322

          k = 0.1875 0.3750 0.0000 ( 15947 PWs)   bands (ev):

    -5.1530  -3.7582  -2.9122  -1.6143  -1.5366   0.3704   0.5800   1.2734
     1.7177   2.5316   3.3440   3.3840   3.8997   3.9061   5.4487   5.9043

          k = 0.1875 0.4375 0.0000 ( 15942 PWs)   bands (ev):

    -4.6947  -3.5732  -3.3035  -2.1914  -1.1650  -0.0666   0.8086   1.6813
     1.9296   2.1531   2.7863   3.2025   3.8764   4.2638   4.8829   5.2954

          k = 0.1875-0.5000 0.0000 ( 15954 PWs)   bands (ev):

    -4.1677  -4.1677  -2.7809  -2.7809  -0.6487  -0.6487   1.3098   1.3098
     2.2331   2.2331   2.6519   2.6519   4.3464   4.3464   4.7447   4.7447

          k = 0.2500 0.2500 0.0000 ( 15961 PWs)   bands (ev):

    -5.6128  -4.2144  -2.0653  -1.1599  -1.1599   0.2095   0.2095   0.8321
     2.2893   2.2893   2.9803   3.1656   4.5091   5.1145   5.1145   6.4739

          k = 0.2500 0.3125 0.0000 ( 15970 PWs)   bands (ev):

    -5.2943  -3.8984  -1.9452  -1.7530  -0.8653  -0.5563   0.5138   1.1366
     1.5245   2.4078   2.5813   3.2506   3.7792   4.3974   5.3483   5.7858

          k = 0.2500 0.3750 0.0000 ( 15943 PWs)   bands (ev):

    -4.9060  -3.5132  -2.6693  -1.3723  -1.2988  -0.4652   0.8139   0.8900
     1.4799   1.7364   2.9113   3.0133   3.6799   3.7524   5.1131   5.4274

          k = 0.2500 0.4375 0.0000 ( 15971 PWs)   bands (ev):

    -4.4484  -3.3290  -3.0594  -1.9499  -0.9239  -0.0259   0.1720   1.0519
     1.3258   1.9617   2.3968   2.9420   3.5270   4.0829   4.4969   5.0551

          k = 0.2500-0.5000 0.0000 ( 15944 PWs)   bands (ev):

    -3.9225  -3.9225  -2.5379  -2.5379  -0.4088  -0.4088   0.4817   0.4817
     1.8299   1.8299   2.4493   2.4493   3.9500   3.9500   4.5541   4.5541

          k = 0.3125 0.3125 0.0000 ( 15983 PWs)   bands (ev):

    -4.9765  -3.5832  -1.6363  -1.6363  -1.4415  -0.2623  -0.2623   1.4125
     1.6712   1.8238   1.8238   2.9494   3.6142   4.6663   4.6663   5.0514

          k = 0.3125 0.3750 0.0000 ( 15969 PWs)   bands (ev):

    -4.5890  -3.1989  -2.3578  -1.2717  -1.0618  -0.9653   0.1115   0.9213
     1.1207   1.8255   2.1838   2.2674   3.9507   4.0069   4.3709   4.9618

          k = 0.3125 0.4375 0.0000 ( 15954 PWs)   bands (ev):

    -4.1325  -3.0157  -2.7463  -1.6422  -0.8022  -0.6147   0.2832   0.4772
     0.5540   1.6333   2.2459   2.5802   3.4247   3.7583   4.3558   5.0998

          k = 0.3125-0.5000 0.0000 ( 15916 PWs)   bands (ev):

    -3.6077  -3.6077  -2.2264  -2.2264  -0.2933  -0.2933  -0.1010  -0.1010
     1.0609   1.0609   2.6720   2.6720   3.2695   3.2695   4.7910   4.7910

          k = 0.3750 0.3750 0.0000 ( 15968 PWs)   bands (ev):

    -4.2026  -2.8158  -1.9788  -1.9788  -0.6834  -0.6018  -0.6018   0.2167
     1.4886   1.4886   1.5674   2.1780   3.6940   4.2896   4.3408   4.3408

          k = 0.3750 0.4375 0.0000 ( 15960 PWs)   bands (ev):

    -3.7474  -2.6339  -2.3649  -1.5442  -1.2395  -0.4277  -0.2379  -0.1588
     0.8501   0.9277   1.9167   2.5366   3.1397   3.7438   4.6586   4.7015

          k = 0.3750-0.5000 0.0000 ( 15986 PWs)   bands (ev):

    -3.2241  -3.2241  -1.8489  -1.8489  -1.0056  -1.0056   0.2736   0.2736
     0.3518   0.3518   2.3802   2.3802   3.2265   3.2265   4.9025   4.9025

          k = 0.4375 0.4375 0.0000 ( 15976 PWs)   bands (ev):

    -3.2937  -2.1850  -2.1850  -1.9178  -1.0735  -0.8064  -0.8064   0.2055
     0.2844   1.2866   1.2866   2.3133   3.1602   4.1439   4.1439   4.8366

          k = 0.4375-0.5000 0.0000 ( 15978 PWs)   bands (ev):

    -2.7724  -2.7724  -1.6808  -1.6808  -1.3770  -1.3770  -0.2944  -0.2944
     0.7145   0.7145   1.7827   1.7827   3.6115   3.6115   4.5706   4.5706

          k =-0.5000-0.5000 0.0000 ( 15928 PWs)   bands (ev):

    -2.2539  -2.2539  -2.2539  -2.2539  -0.8748  -0.8748  -0.8748  -0.8748
     1.2191   1.2191   1.2191   1.2191   4.0781   4.0781   4.0781   4.0781

     the Fermi energy is     3.9781 ev

!    total energy              =     -99.59300814 Ry
     Harris-Foulkes estimate   =     -99.59300815 Ry
     estimated scf accuracy    <          3.7E-09 Ry

     The total energy is the sum of the following terms:

     one-electron contribution =     -29.27716854 Ry
     hartree contribution      =      23.10293827 Ry
     xc contribution           =     -79.83642360 Ry
     ewald contribution        =     -13.58249132 Ry
     smearing contrib. (-TS)   =       0.00013705 Ry

     convergence has been achieved in  11 iterations

     Forces acting on atoms (Ry/au):

     atom    1 type  1   force =     0.00000000    0.00000000   -0.00552803
     atom    2 type  1   force =     0.00000000    0.00000000   -0.00552803
     atom    3 type  1   force =     0.00000000    0.00000000    0.00012931
     atom    4 type  1   force =     0.00000000    0.00000000    0.00012931
     atom    5 type  1   force =     0.00000000    0.00000000   -0.00012931
     atom    6 type  1   force =     0.00000000    0.00000000   -0.00012930
     atom    7 type  1   force =     0.00000000    0.00000000    0.00552803
     atom    8 type  1   force =     0.00000000    0.00000000    0.00552803

     Total force =     0.011059     Total SCF correction =     0.000097


     entering subroutine stress ...

          total   stress  (Ry/bohr**3)                   (kbar)     P=  -16.43
  -0.00019579   0.00000000   0.00000000        -28.80      0.00      0.00
   0.00000000  -0.00019579   0.00000000          0.00    -28.80      0.00
   0.00000000   0.00000000   0.00005653          0.00      0.00      8.32


     number of scf cycles    =   3
     number of bfgs steps    =   2

     energy   old            =     -99.5928456461 Ry
     energy   new            =     -99.5930081419 Ry

     CASE: energy  _new < energy  _old

     new trust radius        =       0.0104968870 bohr
     new conv_thr            =       0.0000000162 Ry


ATOMIC_POSITIONS (crystal)
Al       0.000000000   0.000000000  -0.001045648
Al       0.500000000   0.500000000  -0.001045649
Al       0.500000000   0.000000000   0.166784501
Al       0.000000000   0.500000000   0.166784501
Al       0.000000000   0.000000000   0.333215499
Al       0.500000000   0.500000000   0.333215499
Al       0.500000000   0.000000000   0.501045649
Al       0.000000000   0.500000000   0.501045649



     Writing output data file Al_100_2_1.save
     NEW-OLD atomic charge density approx. for the potential

     total cpu time spent up to now is      767.2 secs

     per-process dynamical memory:   228.0 Mb

     Self-consistent Calculation

     iteration #  1     ecut=    80.00 Ry     beta=0.30
     Davidson diagonalization with overlap
     ethr =  1.00E-06,  avg # of iterations =  3.0

     Threshold (ethr) on eigenvalues was too large:
     Diagonalizing with lowered threshold

     Davidson diagonalization with overlap
     ethr =  7.57E-08,  avg # of iterations =  1.5

     total cpu time spent up to now is      824.4 secs

     total energy              =     -99.59322861 Ry
     Harris-Foulkes estimate   =     -99.59323029 Ry
     estimated scf accuracy    <       0.00001850 Ry

     iteration #  2     ecut=    80.00 Ry     beta=0.30
     Davidson diagonalization with overlap
     ethr =  7.71E-08,  avg # of iterations =  1.0

     total cpu time spent up to now is      845.7 secs

     total energy              =     -99.59322439 Ry
     Harris-Foulkes estimate   =     -99.59322879 Ry
     estimated scf accuracy    <       0.00001185 Ry

     iteration #  3     ecut=    80.00 Ry     beta=0.30
     Davidson diagonalization with overlap
     ethr =  4.94E-08,  avg # of iterations =  2.0

     total cpu time spent up to now is      872.0 secs

     total energy              =     -99.59322688 Ry
     Harris-Foulkes estimate   =     -99.59322723 Ry
     estimated scf accuracy    <       0.00000209 Ry

     iteration #  4     ecut=    80.00 Ry     beta=0.30
     Davidson diagonalization with overlap
     ethr =  8.70E-09,  avg # of iterations =  1.0

     total cpu time spent up to now is      893.9 secs

     total energy              =     -99.59322688 Ry
     Harris-Foulkes estimate   =     -99.59322698 Ry
     estimated scf accuracy    <       0.00000061 Ry

     iteration #  5     ecut=    80.00 Ry     beta=0.30
     Davidson diagonalization with overlap
     ethr =  2.53E-09,  avg # of iterations =  2.0

     total cpu time spent up to now is      918.4 secs

     total energy              =     -99.59322694 Ry
     Harris-Foulkes estimate   =     -99.59322695 Ry
     estimated scf accuracy    <       0.00000004 Ry

     iteration #  6     ecut=    80.00 Ry     beta=0.30
     Davidson diagonalization with overlap
     ethr =  1.73E-10,  avg # of iterations =  2.9

     total cpu time spent up to now is      947.2 secs

     total energy              =     -99.59322696 Ry
     Harris-Foulkes estimate   =     -99.59322696 Ry
     estimated scf accuracy    <       0.00000013 Ry

     iteration #  7     ecut=    80.00 Ry     beta=0.30
     Davidson diagonalization with overlap
     ethr =  1.73E-10,  avg # of iterations =  1.0

     total cpu time spent up to now is      968.9 secs

     total energy              =     -99.59322694 Ry
     Harris-Foulkes estimate   =     -99.59322696 Ry
     estimated scf accuracy    <       0.00000013 Ry

     iteration #  8     ecut=    80.00 Ry     beta=0.30
     Davidson diagonalization with overlap
     ethr =  1.73E-10,  avg # of iterations =  2.0

     total cpu time spent up to now is      993.7 secs

     total energy              =     -99.59322695 Ry
     Harris-Foulkes estimate   =     -99.59322695 Ry
     estimated scf accuracy    <       0.00000002 Ry

     iteration #  9     ecut=    80.00 Ry     beta=0.30
     Davidson diagonalization with overlap
     ethr =  7.40E-11,  avg # of iterations =  1.1

     total cpu time spent up to now is     1014.8 secs

     End of self-consistent calculation

          k = 0.0000 0.0000 0.0000 ( 15989 PWs)   bands (ev):

    -6.7405  -5.3297  -3.1832  -0.2757   1.5080   1.5080   1.9192   2.8129
     2.8129   2.8835   2.8835   4.3337   4.3337   4.8156   4.8156   5.9085

          k = 0.0000 0.0625 0.0000 ( 15935 PWs)   bands (ev):

    -6.7048  -5.2942  -3.1482  -0.2410   0.9443   1.5409   1.9525   2.2654
     2.8457   2.9437   3.4954   4.2721   4.4167   4.8483   4.9123   5.9394

          k = 0.0000 0.1250 0.0000 ( 15919 PWs)   bands (ev):

    -6.5978  -5.1880  -3.0431  -0.1368   0.0461   1.3915   1.6393   2.0524
     2.9440   3.0480   3.4430   4.3495   4.7195   4.9462   5.9175   6.0910

          k = 0.0000 0.1875 0.0000 ( 15936 PWs)   bands (ev):

    -6.4195  -5.0111  -2.8682  -0.8489   0.0364   0.5102   1.8033   2.2188
     2.5803   3.1080   3.2167   4.5964   5.1095   5.3478   5.8330   6.1778

          k = 0.0000 0.2500 0.0000 ( 15934 PWs)   bands (ev):

    -6.1703  -4.7639  -2.6236  -1.6971  -0.3283   0.2784   1.7557   2.0330
     2.4514   3.3374   3.4440   4.5942   4.8338   5.3380   6.2366   6.3594

          k = 0.0000 0.3125 0.0000 ( 15928 PWs)   bands (ev):

    -5.8506  -4.4466  -2.4872  -2.3099  -1.1108   0.5886   0.9847   2.3284
     2.7500   3.6218   3.6325   3.9846   5.1073   5.4813   5.6317   5.9691

          k = 0.0000 0.3750 0.0000 ( 15942 PWs)   bands (ev):

    -5.4608  -4.0598  -3.2148  -1.9275  -1.8320   0.2733   0.9660   2.6895
     3.1043   3.1139   3.9932   4.1836   4.7915   5.1177   5.6509   5.9906

          k = 0.0000 0.4375 0.0000 ( 15946 PWs)   bands (ev):

    -5.0014  -3.8774  -3.6040  -2.4890  -1.4770  -0.3754   1.4094   2.4855
     3.1164   3.5421   4.1673   4.4194   4.5769   4.6023   5.4686   5.6219

          k = 0.0000-0.5000 0.0000 ( 15930 PWs)   bands (ev):

    -4.4733  -4.4733  -3.0801  -3.0801  -0.9593  -0.9593   1.9171   1.9171
     3.6090   3.6090   4.0322   4.0322   4.9112   4.9112   5.0883   5.0883

          k = 0.0625 0.0625 0.0000 ( 15935 PWs)   bands (ev):

    -6.6691  -5.2588  -3.1131  -0.2063   0.9772   0.9772   1.9858   2.3076
     2.3076   3.5549   3.5549   4.3324   4.3324   4.9593   4.9593   5.9693

          k = 0.0625 0.1250 0.0000 ( 15930 PWs)   bands (ev):

    -6.5621  -5.1526  -3.0081  -0.1022   0.0797   1.0714   1.4364   2.0856
     2.4095   3.4795   3.6632   4.4306   4.6003   5.0904   5.9936   6.0550

          k = 0.0625 0.1875 0.0000 ( 15939 PWs)   bands (ev):

    -6.3839  -4.9758  -2.8332  -0.8149   0.0710   0.5416   1.2509   2.2519
     2.5603   2.6312   3.8287   4.5814   5.1735   5.4446   5.8736   6.1499

          k = 0.0625 0.2500 0.0000 ( 15933 PWs)   bands (ev):

    -6.1348  -4.7286  -2.5888  -1.6627  -0.2947   0.3129   1.4817   1.7889
     2.4844   2.8102   4.0357   4.5769   4.9268   5.4133   5.6803   6.4828

          k = 0.0625 0.3125 0.0000 ( 15927 PWs)   bands (ev):

    -5.8151  -4.4114  -2.4526  -2.2751  -1.0766   0.6228   1.0184   1.7803
     2.7826   3.1077   3.8087   4.4297   4.9512   5.1555   5.6278   6.0518

          k = 0.0625 0.3750 0.0000 ( 15933 PWs)   bands (ev):

    -5.4254  -4.0247  -3.1800  -1.8928  -1.7975   0.3073   0.9999   2.1435
     3.1458   3.1550   3.4702   4.2667   4.7683   5.2241   5.5072   5.5892

          k = 0.0625 0.4375 0.0000 ( 15962 PWs)   bands (ev):

    -4.9661  -3.8424  -3.5690  -2.4543  -1.4424  -0.3411   1.4427   2.4713
     2.6331   3.5718   3.6426   3.8924   4.6361   4.9685   5.1897   5.9282

          k = 0.0625-0.5000 0.0000 ( 15958 PWs)   bands (ev):

    -4.4382  -4.4382  -3.0453  -3.0453  -0.9249  -0.9249   1.9483   1.9483
     3.0833   3.0833   4.0433   4.0433   4.4292   4.4292   5.6698   5.6698

          k = 0.1250 0.1250 0.0000 ( 15947 PWs)   bands (ev):

    -6.4552  -5.0465  -2.9032   0.0017   0.1800   0.1800   1.5341   1.5341
     2.1853   3.5775   3.5775   4.7327   4.7327   6.0837   6.1038   6.1038

          k = 0.1250 0.1875 0.0000 ( 15912 PWs)   bands (ev):

    -6.2771  -4.8698  -2.7284  -0.7128   0.1746   0.3379   0.6635   1.7012
     2.3513   2.7149   3.7363   4.8863   5.5679   5.6141   5.8817   6.2851

          k = 0.1250 0.2500 0.0000 ( 15943 PWs)   bands (ev):

    -6.0282  -4.6228  -2.4842  -1.5597  -0.1956   0.4161   0.5951   1.8757
     1.9514   2.5831   3.9389   4.7281   4.8406   5.2022   6.1767   6.3720

          k = 0.1250 0.3125 0.0000 ( 15949 PWs)   bands (ev):

    -5.7087  -4.3059  -2.3488  -2.1708  -0.9743   0.7253   0.8951   1.1195
     2.2387   2.8801   3.8667   4.0960   4.3869   5.4313   5.4664   5.9488

          k = 0.1250 0.3750 0.0000 ( 15951 PWs)   bands (ev):

    -5.3193  -3.9194  -3.0756  -1.7888  -1.6942   0.4093   1.1012   1.2635
     2.6051   3.2400   3.2472   3.4065   4.6837   4.7467   5.3300   5.8200

          k = 0.1250 0.4375 0.0000 ( 15939 PWs)   bands (ev):

    -4.8604  -3.7375  -3.4641  -2.3503  -1.3388  -0.2385   1.5412   1.6955
     2.6309   2.7794   3.0357   3.6451   4.1429   4.7315   5.0991   6.1289

          k = 0.1250-0.5000 0.0000 ( 15934 PWs)   bands (ev):

    -4.3328  -4.3328  -2.9408  -2.9408  -0.8217  -0.8217   2.0138   2.0138
     2.2470   2.2470   3.5203   3.5203   4.1953   4.1953   5.5842   5.5842

          k = 0.1875 0.1875 0.0000 ( 15931 PWs)   bands (ev):

    -6.0992  -4.6934  -2.5539  -0.5436  -0.5436   0.3470   0.8224   0.8224
     2.5165   2.8781   2.8781   4.7922   5.6447   5.6448   6.1316   6.1467

          k = 0.1875 0.2500 0.0000 ( 15925 PWs)   bands (ev):

    -5.8506  -4.4467  -2.3100  -1.3882  -0.3181  -0.0017   0.5876   1.0577
     2.0574   2.7470   3.1027   3.9889   4.8993   5.3288   5.8469   6.3555

          k = 0.1875 0.3125 0.0000 ( 15944 PWs)   bands (ev):

    -5.5316  -4.1301  -2.1760  -1.9971  -0.8061   0.0114   0.8955   1.2822
     1.3680   3.0403   3.2356   3.3675   4.1985   4.5817   5.8784   6.5307

          k = 0.1875 0.3750 0.0000 ( 15947 PWs)   bands (ev):

    -5.1426  -3.7442  -2.9018  -1.6156  -1.5225   0.3811   0.5789   1.2683
     1.7322   2.5420   3.3396   3.3787   3.9042   3.9132   5.4438   5.9034

          k = 0.1875 0.4375 0.0000 ( 15942 PWs)   bands (ev):

    -4.6842  -3.5628  -3.2895  -2.1773  -1.1663  -0.0677   0.8193   1.6794
     1.9368   2.1676   2.7810   3.2162   3.8710   4.2627   4.8772   5.2945

          k = 0.1875-0.5000 0.0000 ( 15954 PWs)   bands (ev):

    -4.1573  -4.1573  -2.7669  -2.7669  -0.6500  -0.6500   1.3205   1.3205
     2.2277   2.2277   2.6664   2.6664   4.3403   4.3403   4.7437   4.7437

          k = 0.2500 0.2500 0.0000 ( 15961 PWs)   bands (ev):

    -5.6024  -4.2004  -2.0666  -1.1494  -1.1494   0.2239   0.2239   0.8268
     2.2882   2.2882   2.9736   3.1761   4.5239   5.1100   5.1100   6.4724

          k = 0.2500 0.3125 0.0000 ( 15970 PWs)   bands (ev):

    -5.2839  -3.8844  -1.9347  -1.7543  -0.8545  -0.5423   0.5283   1.1315
     1.5234   2.4182   2.5802   3.2452   3.7927   4.3925   5.3443   5.7849

          k = 0.2500 0.3750 0.0000 ( 15943 PWs)   bands (ev):

    -4.8956  -3.4992  -2.6588  -1.3736  -1.2846  -0.4547   0.8140   0.9031
     1.4776   1.7439   2.9099   3.0268   3.6746   3.7476   5.1122   5.4241

          k = 0.2500 0.4375 0.0000 ( 15971 PWs)   bands (ev):

    -4.4380  -3.3185  -3.0454  -1.9358  -0.9252  -0.0153   0.1709   1.0626
     1.3402   1.9563   2.4112   2.9375   3.5252   4.0768   4.4959   5.0501

          k = 0.2500-0.5000 0.0000 ( 15944 PWs)   bands (ev):

    -3.9120  -3.9120  -2.5238  -2.5238  -0.4100  -0.4100   0.4924   0.4924
     1.8444   1.8444   2.4440   2.4440   3.9489   3.9489   4.5483   4.5483

          k = 0.3125 0.3125 0.0000 ( 15983 PWs)   bands (ev):

    -4.9661  -3.5692  -1.6258  -1.6258  -1.4428  -0.2480  -0.2480   1.4102
     1.6788   1.8227   1.8227   2.9629   3.6089   4.6617   4.6617   5.0505

          k = 0.3125 0.3750 0.0000 ( 15969 PWs)   bands (ev):

    -4.5786  -3.1849  -2.3473  -1.2609  -1.0631  -0.9514   0.1258   0.9320
     1.1195   1.8200   2.1826   2.2818   3.9446   4.0020   4.3699   4.9579

          k = 0.3125 0.4375 0.0000 ( 15954 PWs)   bands (ev):

    -4.1221  -3.0052  -2.7322  -1.6281  -0.7916  -0.6159   0.2938   0.4765
     0.5679   1.6477   2.2406   2.5788   3.4199   3.7573   4.3499   5.0965

          k = 0.3125-0.5000 0.0000 ( 15916 PWs)   bands (ev):

    -3.5973  -3.5973  -2.2123  -2.2123  -0.2827  -0.2827  -0.1022  -0.1022
     1.0753   1.0753   2.6675   2.6675   3.2677   3.2677   4.7860   4.7860

          k = 0.3750 0.3750 0.0000 ( 15968 PWs)   bands (ev):

    -4.1922  -2.8018  -1.9683  -1.9683  -0.6847  -0.5876  -0.5876   0.2273
     1.4875   1.4875   1.5818   2.1727   3.6929   4.2837   4.3361   4.3361

          k = 0.3750 0.4375 0.0000 ( 15960 PWs)   bands (ev):

    -3.7370  -2.6235  -2.3508  -1.5334  -1.2256  -0.4172  -0.2391  -0.1445
     0.8490   0.9421   1.9156   2.5320   3.1379   3.7389   4.6536   4.6975

          k = 0.3750-0.5000 0.0000 ( 15986 PWs)   bands (ev):

    -3.2137  -3.2137  -1.8347  -1.8347  -0.9950  -0.9950   0.2726   0.2726
     0.3660   0.3660   2.3788   2.3788   3.2217   3.2217   4.8991   4.8991

          k = 0.4375 0.4375 0.0000 ( 15976 PWs)   bands (ev):

    -3.2832  -2.1745  -2.1745  -1.9037  -1.0630  -0.7923  -0.7923   0.2044
     0.2986   1.2855   1.2855   2.3119   3.1554   4.1393   4.1393   4.8332

          k = 0.4375-0.5000 0.0000 ( 15978 PWs)   bands (ev):

    -2.7619  -2.7619  -1.6700  -1.6700  -1.3631  -1.3631  -0.2802  -0.2802
     0.7133   0.7133   1.7815   1.7815   3.6066   3.6066   4.5666   4.5666

          k =-0.5000-0.5000 0.0000 ( 15928 PWs)   bands (ev):

    -2.2434  -2.2434  -2.2434  -2.2434  -0.8606  -0.8606  -0.8606  -0.8606
     1.2180   1.2180   1.2180   1.2180   4.0734   4.0734   4.0734   4.0734

     the Fermi energy is     3.9799 ev

!    total energy              =     -99.59322695 Ry
     Harris-Foulkes estimate   =     -99.59322695 Ry
     estimated scf accuracy    <          1.7E-09 Ry

     The total energy is the sum of the following terms:

     one-electron contribution =     -28.98515609 Ry
     hartree contribution      =      22.95867803 Ry
     xc contribution           =     -79.83089561 Ry
     ewald contribution        =     -13.73598931 Ry
     smearing contrib. (-TS)   =       0.00013603 Ry

     convergence has been achieved in   9 iterations

     Forces acting on atoms (Ry/au):

     atom    1 type  1   force =     0.00000000    0.00000000   -0.00492196
     atom    2 type  1   force =     0.00000000    0.00000000   -0.00492196
     atom    3 type  1   force =     0.00000000    0.00000000   -0.00049268
     atom    4 type  1   force =     0.00000000    0.00000000   -0.00049268
     atom    5 type  1   force =     0.00000000    0.00000000    0.00049268
     atom    6 type  1   force =     0.00000000    0.00000000    0.00049267
     atom    7 type  1   force =     0.00000000    0.00000000    0.00492197
     atom    8 type  1   force =     0.00000000    0.00000000    0.00492197

     Total force =     0.009893     Total SCF correction =     0.000058


     entering subroutine stress ...

          total   stress  (Ry/bohr**3)                   (kbar)     P=  -17.08
  -0.00019878   0.00000000   0.00000000        -29.24      0.00      0.00
   0.00000000  -0.00019878   0.00000000          0.00    -29.24      0.00
   0.00000000   0.00000000   0.00004924          0.00      0.00      7.24


     number of scf cycles    =   4
     number of bfgs steps    =   3

     energy   old            =     -99.5930081419 Ry
     energy   new            =     -99.5932269453 Ry

     CASE: energy  _new < energy  _old

     new trust radius        =       0.0157453305 bohr
     new conv_thr            =       0.0000000219 Ry


ATOMIC_POSITIONS (crystal)
Al       0.000000000   0.000000000  -0.001735778
Al       0.500000000   0.500000000  -0.001735780
Al       0.500000000   0.000000000   0.166788666
Al       0.000000000   0.500000000   0.166788666
Al       0.000000000   0.000000000   0.333211335
Al       0.500000000   0.500000000   0.333211336
Al       0.500000000   0.000000000   0.501735777
Al       0.000000000   0.500000000   0.501735777



     Writing output data file Al_100_2_1.save
     NEW-OLD atomic charge density approx. for the potential

     total cpu time spent up to now is     1027.3 secs

     per-process dynamical memory:   228.0 Mb

     Self-consistent Calculation

     iteration #  1     ecut=    80.00 Ry     beta=0.30
     Davidson diagonalization with overlap
     ethr =  1.00E-06,  avg # of iterations =  3.2

     total cpu time spent up to now is     1065.5 secs

     total energy              =     -99.59351249 Ry
     Harris-Foulkes estimate   =     -99.59351633 Ry
     estimated scf accuracy    <       0.00004864 Ry

     iteration #  2     ecut=    80.00 Ry     beta=0.30
     Davidson diagonalization with overlap
     ethr =  2.03E-07,  avg # of iterations =  1.0

     total cpu time spent up to now is     1087.2 secs

     total energy              =     -99.59350337 Ry
     Harris-Foulkes estimate   =     -99.59351363 Ry
     estimated scf accuracy    <       0.00003125 Ry

     iteration #  3     ecut=    80.00 Ry     beta=0.30
     Davidson diagonalization with overlap
     ethr =  1.30E-07,  avg # of iterations =  2.0

     total cpu time spent up to now is     1113.4 secs

     total energy              =     -99.59350934 Ry
     Harris-Foulkes estimate   =     -99.59351032 Ry
     estimated scf accuracy    <       0.00000569 Ry

     iteration #  4     ecut=    80.00 Ry     beta=0.30
     Davidson diagonalization with overlap
     ethr =  2.37E-08,  avg # of iterations =  1.4

     total cpu time spent up to now is     1134.9 secs

     total energy              =     -99.59350952 Ry
     Harris-Foulkes estimate   =     -99.59350966 Ry
     estimated scf accuracy    <       0.00000116 Ry

     iteration #  5     ecut=    80.00 Ry     beta=0.30
     Davidson diagonalization with overlap
     ethr =  4.84E-09,  avg # of iterations =  2.1

     total cpu time spent up to now is     1160.1 secs

     total energy              =     -99.59350962 Ry
     Harris-Foulkes estimate   =     -99.59350963 Ry
     estimated scf accuracy    <       0.00000005 Ry

     iteration #  6     ecut=    80.00 Ry     beta=0.30
     Davidson diagonalization with overlap
     ethr =  1.94E-10,  avg # of iterations =  3.1

     total cpu time spent up to now is     1189.3 secs

     total energy              =     -99.59350965 Ry
     Harris-Foulkes estimate   =     -99.59350966 Ry
     estimated scf accuracy    <       0.00000023 Ry

     iteration #  7     ecut=    80.00 Ry     beta=0.30
     Davidson diagonalization with overlap
     ethr =  1.94E-10,  avg # of iterations =  1.0

     total cpu time spent up to now is     1210.4 secs

     total energy              =     -99.59350963 Ry
     Harris-Foulkes estimate   =     -99.59350966 Ry
     estimated scf accuracy    <       0.00000020 Ry

     iteration #  8     ecut=    80.00 Ry     beta=0.30
     Davidson diagonalization with overlap
     ethr =  1.94E-10,  avg # of iterations =  2.0

     total cpu time spent up to now is     1235.9 secs

     End of self-consistent calculation

          k = 0.0000 0.0000 0.0000 ( 15989 PWs)   bands (ev):

    -6.7243  -5.3100  -3.1848  -0.2840   1.5250   1.5250   1.9086   2.8352
     2.8352   2.9000   2.9000   4.3523   4.3523   4.8145   4.8145   5.8908

          k = 0.0000 0.0625 0.0000 ( 15935 PWs)   bands (ev):

    -6.6886  -5.2746  -3.1497  -0.2493   0.9610   1.5578   1.9419   2.2868
     2.8680   2.9600   3.5123   4.2774   4.4283   4.8471   4.9320   5.9219

          k = 0.0000 0.1250 0.0000 ( 15919 PWs)   bands (ev):

    -6.5816  -5.1683  -3.0446  -0.1452   0.0626   1.4123   1.6562   2.0419
     2.9663   3.0642   3.4429   4.3672   4.7357   4.9451   5.9324   6.0139

          k = 0.0000 0.1875 0.0000 ( 15936 PWs)   bands (ev):

    -6.4034  -4.9915  -2.8697  -0.8325   0.0282   0.5307   1.8203   2.2083
     2.5797   3.1303   3.2330   4.6143   5.1083   5.3400   5.8493   6.1616

          k = 0.0000 0.2500 0.0000 ( 15934 PWs)   bands (ev):

    -6.1542  -4.7442  -2.6251  -1.6808  -0.3080   0.2702   1.7549   2.0500
     2.4411   3.3598   3.4604   4.5859   4.8515   5.3368   6.2538   6.3459

          k = 0.0000 0.3125 0.0000 ( 15928 PWs)   bands (ev):

    -5.8344  -4.4269  -2.4710  -2.3114  -1.0907   0.5804   0.9837   2.3454
     2.7397   3.6305   3.6549   3.9838   5.1235   5.4984   5.6305   5.9626

          k = 0.0000 0.3750 0.0000 ( 15942 PWs)   bands (ev):

    -5.4446  -4.0400  -3.1986  -1.9289  -1.8119   0.2722   0.9579   2.7065
     3.0981   3.1038   4.0156   4.1977   4.8086   5.1138   5.6640   5.9893

          k = 0.0000 0.4375 0.0000 ( 15946 PWs)   bands (ev):

    -4.9852  -3.8612  -3.5842  -2.4691  -1.4783  -0.3766   1.4015   2.4781
     3.1334   3.5322   4.1844   4.4419   4.5679   4.6176   5.4912   5.6377

          k = 0.0000-0.5000 0.0000 ( 15930 PWs)   bands (ev):

    -4.4571  -4.4571  -3.0603  -3.0603  -0.9605  -0.9605   1.9093   1.9093
     3.6260   3.6260   4.0226   4.0226   4.9338   4.9338   5.1040   5.1040

          k = 0.0625 0.0625 0.0000 ( 15935 PWs)   bands (ev):

    -6.6530  -5.2391  -3.1147  -0.2146   0.9939   0.9939   1.9753   2.3290
     2.3290   3.5715   3.5715   4.3319   4.3319   4.9779   4.9779   5.9519

          k = 0.0625 0.1250 0.0000 ( 15930 PWs)   bands (ev):

    -6.5459  -5.1329  -3.0096  -0.1105   0.0962   1.0882   1.4571   2.0751
     2.4310   3.4788   3.6798   4.4297   4.6174   5.1086   6.0125   6.0384

          k = 0.0625 0.1875 0.0000 ( 15939 PWs)   bands (ev):

    -6.3677  -4.9561  -2.8347  -0.7984   0.0627   0.5621   1.2676   2.2415
     2.5770   2.6351   3.8453   4.5802   5.1925   5.4367   5.8899   6.1399

          k = 0.0625 0.2500 0.0000 ( 15933 PWs)   bands (ev):

    -6.1186  -4.7089  -2.5902  -1.6464  -0.2744   0.3047   1.4984   1.7881
     2.4740   2.8315   4.0517   4.5709   4.9241   5.4318   5.6962   6.4678

          k = 0.0625 0.3125 0.0000 ( 15927 PWs)   bands (ev):

    -5.7990  -4.3917  -2.4363  -2.2766  -1.0565   0.6147   1.0175   1.7971
     2.7724   3.1291   3.8041   4.4426   4.9680   5.1545   5.6388   6.0517

          k = 0.0625 0.3750 0.0000 ( 15933 PWs)   bands (ev):

    -5.4092  -4.0049  -3.1638  -1.8942  -1.7775   0.3062   0.9918   2.1603
     3.1357   3.1478   3.4916   4.2835   4.7837   5.2163   5.5062   5.6110

          k = 0.0625 0.4375 0.0000 ( 15962 PWs)   bands (ev):

    -4.9500  -3.8262  -3.5492  -2.4344  -1.4437  -0.3423   1.4348   2.4722
     2.6413   3.5620   3.6593   3.9133   4.6276   4.9902   5.2055   5.9272

          k = 0.0625-0.5000 0.0000 ( 15958 PWs)   bands (ev):

    -4.4220  -4.4220  -3.0254  -3.0254  -0.9261  -0.9261   1.9408   1.9408
     3.0998   3.0998   4.0356   4.0356   4.4489   4.4489   5.6859   5.6859

          k = 0.1250 0.1250 0.0000 ( 15947 PWs)   bands (ev):

    -6.4390  -5.0268  -2.9047  -0.0066   0.1966   0.1966   1.5549   1.5549
     2.1749   3.5767   3.5767   4.7494   4.7494   6.0735   6.1230   6.1230

          k = 0.1250 0.1875 0.0000 ( 15912 PWs)   bands (ev):

    -6.2609  -4.8501  -2.7299  -0.6964   0.1664   0.3548   0.6837   1.7221
     2.3409   2.7139   3.7354   4.9026   5.5603   5.6292   5.8986   6.3030

          k = 0.1250 0.2500 0.0000 ( 15943 PWs)   bands (ev):

    -6.0120  -4.6031  -2.4856  -1.5433  -0.1752   0.4079   0.6116   1.8798
     1.9671   2.5728   3.9378   4.7243   4.8573   5.2148   6.1983   6.3793

          k = 0.1250 0.3125 0.0000 ( 15949 PWs)   bands (ev):

    -5.6926  -4.2861  -2.3325  -2.1722  -0.9542   0.7172   0.9116   1.1186
     2.2594   2.8699   3.8608   4.1126   4.3847   5.4527   5.4820   5.9423

          k = 0.1250 0.3750 0.0000 ( 15951 PWs)   bands (ev):

    -5.3031  -3.8997  -3.0593  -1.7901  -1.6741   0.4082   1.0932   1.2802
     2.6259   3.2301   3.2397   3.4230   4.6826   4.7679   5.3217   5.8361

          k = 0.1250 0.4375 0.0000 ( 15939 PWs)   bands (ev):

    -4.8442  -3.7212  -3.4443  -2.3304  -1.3401  -0.2397   1.5335   1.7123
     2.6230   2.7957   3.0565   3.6371   4.1623   4.7226   5.0981   6.1280

          k = 0.1250-0.5000 0.0000 ( 15934 PWs)   bands (ev):

    -4.3166  -4.3166  -2.9209  -2.9209  -0.8229  -0.8229   2.0112   2.0112
     2.2582   2.2582   3.5401   3.5401   4.1871   4.1871   5.5833   5.5833

          k = 0.1875 0.1875 0.0000 ( 15931 PWs)   bands (ev):

    -6.0831  -4.6736  -2.5554  -0.5271  -0.5271   0.3388   0.8429   0.8429
     2.5062   2.8772   2.8772   4.8088   5.6403   5.6404   6.1531   6.1605

          k = 0.1875 0.2500 0.0000 ( 15925 PWs)   bands (ev):

    -5.8345  -4.4269  -2.3115  -1.3718  -0.3013   0.0183   0.5795   1.0784
     2.0563   2.7368   3.1017   4.0055   4.8924   5.3501   5.8410   6.3714

          k = 0.1875 0.3125 0.0000 ( 15944 PWs)   bands (ev):

    -5.5154  -4.1104  -2.1597  -1.9985  -0.7859   0.0279   0.8875   1.2836
     1.3861   3.0303   3.2521   3.3661   4.1913   4.6027   5.8734   6.5287

          k = 0.1875 0.3750 0.0000 ( 15947 PWs)   bands (ev):

[...]

     the Fermi energy is     4.0070 ev

!    total energy              =     -99.59457415 Ry
     Harris-Foulkes estimate   =     -99.59457416 Ry
     estimated scf accuracy    <          1.6E-09 Ry

     The total energy is the sum of the following terms:

     one-electron contribution =     -24.48426295 Ry
     hartree contribution      =      20.73063194 Ry
     xc contribution           =     -79.75343585 Ry
     ewald contribution        =     -16.08758397 Ry
     smearing contrib. (-TS)   =       0.00007668 Ry

     convergence has been achieved in  11 iterations

     Forces acting on atoms (Ry/au):

     atom    1 type  1   force =     0.00000000    0.00000000    0.00085956
     atom    2 type  1   force =     0.00000000    0.00000000    0.00085957
     atom    3 type  1   force =     0.00000000    0.00000000   -0.00199008
     atom    4 type  1   force =     0.00000000    0.00000000   -0.00199008
     atom    5 type  1   force =     0.00000000    0.00000000    0.00199007
     atom    6 type  1   force =     0.00000000    0.00000000    0.00199007
     atom    7 type  1   force =     0.00000000    0.00000000   -0.00085956
     atom    8 type  1   force =     0.00000000    0.00000000   -0.00085956

     Total force =     0.004336     Total SCF correction =     0.000049


     entering subroutine stress ...

          total   stress  (Ry/bohr**3)                   (kbar)     P=  -26.16
  -0.00024103   0.00000000   0.00000000        -35.46      0.00      0.00
   0.00000000  -0.00024103   0.00000000          0.00    -35.46      0.00
   0.00000000   0.00000000  -0.00005150          0.00      0.00     -7.58


     number of scf cycles    =  10
     number of bfgs steps    =   9

     energy   old            =     -99.5944438875 Ry
     energy   new            =     -99.5945741537 Ry

     CASE: energy  _new < energy  _old

     new trust radius        =       0.0107387190 bohr
     new conv_thr            =       0.0000000130 Ry


ATOMIC_POSITIONS (crystal)
Al       0.000000000   0.000000000  -0.007629192
Al       0.500000000   0.500000000  -0.007629198
Al       0.500000000   0.000000000   0.164706883
Al       0.000000000   0.500000000   0.164706883
Al       0.000000000   0.000000000   0.335293117
Al       0.500000000   0.500000000   0.335293116
Al       0.500000000   0.000000000   0.507629195
Al       0.000000000   0.500000000   0.507629195



     Writing output data file Al_100_2_1.save
     NEW-OLD atomic charge density approx. for the potential

     total cpu time spent up to now is     2741.8 secs

     per-process dynamical memory:   228.0 Mb

     Self-consistent Calculation

     iteration #  1     ecut=    80.00 Ry     beta=0.30
     Davidson diagonalization with overlap
     ethr =  1.00E-06,  avg # of iterations =  3.4

     total cpu time spent up to now is     2776.2 secs

     total energy              =     -99.59462973 Ry
     Harris-Foulkes estimate   =     -99.59463550 Ry
     estimated scf accuracy    <       0.00006915 Ry

     iteration #  2     ecut=    80.00 Ry     beta=0.30
     Davidson diagonalization with overlap
     ethr =  2.88E-07,  avg # of iterations =  1.0

     total cpu time spent up to now is     2797.9 secs

     total energy              =     -99.59461657 Ry
     Harris-Foulkes estimate   =     -99.59463100 Ry
     estimated scf accuracy    <       0.00004318 Ry

     iteration #  3     ecut=    80.00 Ry     beta=0.30
     Davidson diagonalization with overlap
     ethr =  1.80E-07,  avg # of iterations =  2.4

     total cpu time spent up to now is     2823.3 secs

     total energy              =     -99.59462478 Ry
     Harris-Foulkes estimate   =     -99.59462588 Ry
     estimated scf accuracy    <       0.00000579 Ry

     iteration #  4     ecut=    80.00 Ry     beta=0.30
     Davidson diagonalization with overlap
     ethr =  2.41E-08,  avg # of iterations =  1.5

     total cpu time spent up to now is     2845.1 secs

     total energy              =     -99.59462515 Ry
     Harris-Foulkes estimate   =     -99.59462522 Ry
     estimated scf accuracy    <       0.00000081 Ry

     iteration #  5     ecut=    80.00 Ry     beta=0.30
     Davidson diagonalization with overlap
     ethr =  3.37E-09,  avg # of iterations =  2.3

     total cpu time spent up to now is     2868.5 secs

     total energy              =     -99.59462517 Ry
     Harris-Foulkes estimate   =     -99.59462520 Ry
     estimated scf accuracy    <       0.00000018 Ry

     iteration #  6     ecut=    80.00 Ry     beta=0.30
     Davidson diagonalization with overlap
     ethr =  7.40E-10,  avg # of iterations =  2.8

     total cpu time spent up to now is     2894.6 secs

     total energy              =     -99.59462521 Ry
     Harris-Foulkes estimate   =     -99.59462521 Ry
     estimated scf accuracy    <       0.00000006 Ry

     iteration #  7     ecut=    80.00 Ry     beta=0.30
     Davidson diagonalization with overlap
     ethr =  2.67E-10,  avg # of iterations =  1.0

     total cpu time spent up to now is     2915.8 secs

     total energy              =     -99.59462520 Ry
     Harris-Foulkes estimate   =     -99.59462521 Ry
     estimated scf accuracy    <       0.00000006 Ry

     iteration #  8     ecut=    80.00 Ry     beta=0.30
     Davidson diagonalization with overlap
     ethr =  2.67E-10,  avg # of iterations =  1.0

     total cpu time spent up to now is     2937.3 secs

     total energy              =     -99.59462520 Ry
     Harris-Foulkes estimate   =     -99.59462520 Ry
     estimated scf accuracy    <       0.00000002 Ry

     iteration #  9     ecut=    80.00 Ry     beta=0.30
     Davidson diagonalization with overlap
     ethr =  8.37E-11,  avg # of iterations =  2.0

     total cpu time spent up to now is     2961.8 secs

     End of self-consistent calculation

          k = 0.0000 0.0000 0.0000 ( 15989 PWs)   bands (ev):

    -6.5564  -5.2061  -3.1677  -0.3566   1.7018   1.7018   1.8219   2.9514
     2.9514   3.0715   3.0715   4.4501   4.4501   4.8466   4.8466   5.7283

          k = 0.0000 0.0625 0.0000 ( 15935 PWs)   bands (ev):

    -6.5207  -5.1707  -3.1327  -0.3218   1.1352   1.7346   1.8553   2.4028
     2.9842   3.1260   3.6876   4.3257   4.5030   4.8793   5.0365   5.7601

          k = 0.0000 0.1250 0.0000 ( 15919 PWs)   bands (ev):

    -6.4137  -5.0644  -3.0275  -0.2174   0.2350   1.5241   1.8331   1.9555
     3.0826   3.2312   3.4724   4.4967   4.8730   4.9772   5.8548   5.9792

          k = 0.0000 0.1875 0.0000 ( 15936 PWs)   bands (ev):

    -6.2354  -4.8874  -2.8523  -0.6614  -0.0438   0.6403   1.9973   2.1224
     2.6055   3.2466   3.4013   4.7167   5.1404   5.2757   6.0092   6.0167

          k = 0.0000 0.2500 0.0000 ( 15934 PWs)   bands (ev):

    -5.9862  -4.6400  -2.6075  -1.5105  -0.1999   0.1988   1.7787   2.2272
     2.3558   3.4763   3.6309   4.5137   4.9507   5.3689   6.2135   6.4333

          k = 0.0000 0.3125 0.0000 ( 15928 PWs)   bands (ev):

    -5.6664  -4.3225  -2.3013  -2.2934  -0.9835   0.5096   1.0061   2.5229
     2.6554   3.6829   3.7715   4.0280   5.2121   5.6626   5.6776   5.8992

          k = 0.0000 0.3750 0.0000 ( 15942 PWs)   bands (ev):

    -5.2764  -3.9354  -3.0294  -1.9105  -1.7056   0.2934   0.8880   2.8842
     3.0207   3.0433   4.1323   4.3484   4.9875   5.0689   5.7312   6.0215

          k = 0.0000 0.4375 0.0000 ( 15946 PWs)   bands (ev):

    -4.8169  -3.6924  -3.4793  -2.3633  -1.4594  -0.3563   1.3328   2.4144
     3.3114   3.4507   4.3630   4.4939   4.5588   4.7773   5.6083   5.8017

          k = 0.0000-0.5000 0.0000 ( 15930 PWs)   bands (ev):

    -4.2886  -4.2886  -2.9550  -2.9550  -0.9410  -0.9410   1.8424   1.8424
     3.8043   3.8043   3.9435   3.9435   5.0508   5.0508   5.2674   5.2674

          k = 0.0625 0.0625 0.0000 ( 15935 PWs)   bands (ev):

    -6.4850  -5.1352  -3.0976  -0.2870   1.1682   1.1682   1.8887   2.4427
     2.4427   3.7431   3.7431   4.3632   4.3632   5.0763   5.0763   5.7913

          k = 0.0625 0.1250 0.0000 ( 15930 PWs)   bands (ev):

    -6.3780  -5.0290  -2.9924  -0.1827   0.2687   1.2628   1.5676   1.9889
     2.5441   3.5060   3.8507   4.4591   4.7922   5.2064   5.8832   6.0990

          k = 0.0625 0.1875 0.0000 ( 15939 PWs)   bands (ev):

    -6.1998  -4.8521  -2.8174  -0.6272  -0.0091   0.6725   1.4406   2.1557
     2.6365   2.7133   4.0173   4.6079   5.3027   5.3669   6.0219   6.0542

          k = 0.0625 0.2500 0.0000 ( 15933 PWs)   bands (ev):

    -5.9506  -4.6047  -2.5726  -1.4760  -0.1660   0.2333   1.6726   1.8122
     2.3889   2.9435   4.2146   4.5321   4.9273   5.5341   5.8561   6.3321

          k = 0.0625 0.3125 0.0000 ( 15927 PWs)   bands (ev):

    -5.6309  -4.2873  -2.2667  -2.2586  -0.9493   0.5440   1.0399   1.9719
     2.6882   3.2414   3.7595   4.5882   5.1436   5.1794   5.6775   6.0436

          k = 0.0625 0.3750 0.0000 ( 15933 PWs)   bands (ev):

    -5.2410  -3.9003  -2.9946  -1.8758  -1.6711   0.3275   0.9221   2.3359
     3.0529   3.0847   3.6039   4.4590   4.9453   5.1486   5.5329   5.7245

          k = 0.0625 0.4375 0.0000 ( 15962 PWs)   bands (ev):

    -4.7816  -3.6574  -3.4443  -2.3286  -1.4248  -0.3220   1.3665   2.4403
     2.7818   3.4813   3.8338   4.0222   4.5551   5.1027   5.3712   5.9542

          k = 0.0625-0.5000 0.0000 ( 15958 PWs)   bands (ev):

    -4.2534  -4.2534  -2.9201  -2.9201  -0.9066  -0.9066   1.8752   1.8752
     3.2724   3.2724   3.9650   3.9650   4.5530   4.5530   5.8535   5.8535

          k = 0.1250 0.1250 0.0000 ( 15947 PWs)   bands (ev):

    -6.2711  -4.9228  -2.8874  -0.0785   0.3693   0.3693   1.6650   1.6650
     2.0889   3.6033   3.6033   4.9240   4.9240   5.9558   6.2211   6.2211

          k = 0.1250 0.1875 0.0000 ( 15912 PWs)   bands (ev):

    -6.0930  -4.7460  -2.7124  -0.5250   0.0948   0.5275   0.7922   1.8326
     2.2554   2.7381   3.7620   5.0733   5.4897   5.7759   6.0701   6.2580

          k = 0.1250 0.2500 0.0000 ( 15943 PWs)   bands (ev):

    -5.8440  -4.4989  -2.4679  -1.3729  -0.0658   0.3368   0.7825   1.9122
     2.0680   2.4881   3.9622   4.6820   5.0310   5.3582   6.3101   6.3686

          k = 0.1250 0.3125 0.0000 ( 15949 PWs)   bands (ev):

    -5.5245  -4.1817  -2.1628  -2.1541  -0.8467   0.6469   1.0840   1.1412
     2.3689   2.7864   3.8171   4.2864   4.3897   5.5641   5.6456   5.8806

          k = 0.1250 0.3750 0.0000 ( 15951 PWs)   bands (ev):

    -5.1349  -3.7950  -2.8901  -1.7717  -1.5676   0.4296   1.0242   1.4535
     2.7359   3.1485   3.1755   3.5955   4.7041   4.8779   5.2492   6.0035

          k = 0.1250 0.4375 0.0000 ( 15939 PWs)   bands (ev):

    -4.6758  -3.5524  -3.3393  -2.2245  -1.3211  -0.2193   1.4670   1.8868
     2.5542   2.9659   3.1663   3.5654   4.2635   4.6461   5.1218   6.1506

          k = 0.1250-0.5000 0.0000 ( 15934 PWs)   bands (ev):

    -4.1480  -4.1480  -2.8155  -2.8155  -0.8033  -0.8033   1.9686   1.9686
     2.4051   2.4051   3.6423   3.6423   4.1158   4.1158   5.6074   5.6074

          k = 0.1875 0.1875 0.0000 ( 15931 PWs)   bands (ev):

    -5.9151  -4.5694  -2.5377  -0.3553  -0.3553   0.2676   0.9512   0.9512
     2.4213   2.9019   2.9019   4.9820   5.5917   5.5918   6.2644   6.3119

          k = 0.1875 0.2500 0.0000 ( 15925 PWs)   bands (ev):

    -5.6664  -4.3226  -2.2936  -1.2012  -0.1295   0.1256   0.5090   1.1872
     2.0793   2.6529   3.1268   4.1788   4.8273   5.4608   5.7800   6.5372

          k = 0.1875 0.3125 0.0000 ( 15944 PWs)   bands (ev):

    -5.3473  -4.0058  -1.9898  -1.9802  -0.6772   0.1977   0.8180   1.3097
     1.4909   2.9483   3.3885   3.4240   4.1255   4.7118   5.8166   6.5174

          k = 0.1875 0.3750 0.0000 ( 15947 PWs)   bands (ev):

    -4.9581  -3.6196  -2.7161  -1.5983  -1.3955   0.5690   0.5994   1.1935
     1.8612   2.7276   3.2864   3.2982   3.9035   4.0325   5.3678   5.9235

          k = 0.1875 0.4375 0.0000 ( 15942 PWs)   bands (ev):

    -4.4996  -3.3776  -3.1646  -2.0513  -1.1484  -0.0483   1.0084   1.6295
     2.0977   2.2971   2.7070   3.3345   3.7927   4.2811   4.7932   5.3164

          k = 0.1875-0.5000 0.0000 ( 15954 PWs)   bands (ev):

    -3.9725  -3.9725  -2.6414  -2.6414  -0.6314  -0.6314   1.5112   1.5112
     2.1491   2.1491   2.7957   2.7957   4.2531   4.2531   4.7649   4.7649

          k = 0.2500 0.2500 0.0000 ( 15961 PWs)   bands (ev):

    -5.4181  -4.0762  -2.0498  -0.9618  -0.9618   0.3513   0.3513   0.7492
     2.3109   2.3109   2.8815   3.3643   4.6538   5.0365   5.0365   6.4576

          k = 0.2500 0.3125 0.0000 ( 15970 PWs)   bands (ev):

    -5.0995  -3.7600  -1.7481  -1.7372  -0.6665  -0.4161   0.6562   1.0563
     1.5448   2.6033   2.6035   3.1645   3.9115   4.3159   5.2752   5.8044

          k = 0.2500 0.3750 0.0000 ( 15943 PWs)   bands (ev):

    -4.7111  -3.3744  -2.4730  -1.3560  -1.1564  -0.2691   0.8361   1.0297
     1.4254   1.9063   2.9297   3.1436   3.5967   3.6728   5.1335   5.3608

          k = 0.2500 0.4375 0.0000 ( 15971 PWs)   bands (ev):

    -4.2533  -3.1332  -2.9202  -1.8093  -0.9071   0.1721   0.1905   1.2529
     1.4687   1.8769   2.5398   2.8833   3.5231   3.9887   4.5164   4.9724

          k = 0.2500-0.5000 0.0000 ( 15944 PWs)   bands (ev):

    -3.7271  -3.7271  -2.3981  -2.3981  -0.3912  -0.3912   0.6810   0.6810
     1.9733   1.9733   2.3692   2.3692   3.9663   3.9663   4.4631   4.4631

          k = 0.3125 0.3125 0.0000 ( 15983 PWs)   bands (ev):

    -4.7816  -3.4445  -1.4387  -1.4387  -1.4253  -0.1215  -0.1215   1.3572
     1.8417   1.8448   1.8448   3.0792   3.5311   4.5867   4.5867   5.0716

          k = 0.3125 0.3750 0.0000 ( 15969 PWs)   bands (ev):

    -4.3940  -3.0599  -2.1611  -1.0733  -1.0452  -0.8259   0.2527   1.1222
     1.1407   1.7403   2.2052   2.4101   3.8561   3.9244   4.3901   4.8884

          k = 0.3125 0.4375 0.0000 ( 15954 PWs)   bands (ev):

    -3.9373  -2.8197  -2.6068  -1.5003  -0.6064  -0.5975   0.4821   0.4953
     0.6967   1.7763   2.1655   2.5978   3.3445   3.7742   4.2641   5.0324

          k = 0.3125-0.5000 0.0000 ( 15916 PWs)   bands (ev):

    -3.4122  -3.4122  -2.0862  -2.0862  -0.0957  -0.0957  -0.0832  -0.0832
     1.2037   1.2037   2.6129   2.6129   3.2650   3.2650   4.7074   4.7074

          k = 0.3750 0.3750 0.0000 ( 15968 PWs)   bands (ev):

    -4.0074  -2.6764  -1.7815  -1.7815  -0.6664  -0.4617  -0.4617   0.4155
     1.5092   1.5092   1.7103   2.0974   3.7098   4.1977   4.2608   4.2608

          k = 0.3750 0.4375 0.0000 ( 15960 PWs)   bands (ev):

    -3.5519  -2.4375  -2.2249  -1.3460  -1.1006  -0.2304  -0.2204  -0.0183
     0.8701   1.0703   1.9378   2.4773   3.1349   3.6608   4.5746   4.6278

          k = 0.3750-0.5000 0.0000 ( 15986 PWs)   bands (ev):

    -3.0283  -3.0283  -1.7073  -1.7073  -0.8101  -0.8101   0.2897   0.2897
     0.4959   0.4959   2.3974   2.3974   3.1461   3.1461   4.8346   4.8346

          k = 0.4375 0.4375 0.0000 ( 15976 PWs)   bands (ev):

    -3.0979  -1.9880  -1.9880  -1.7764  -0.8781  -0.6668  -0.6668   0.2210
     0.4289   1.3070   1.3070   2.3304   3.0797   4.0637   4.0637   4.7685

          k = 0.4375-0.5000 0.0000 ( 15978 PWs)   bands (ev):

    -2.5761  -2.5761  -1.4828  -1.4828  -1.2383  -1.2383  -0.1544  -0.1544
     0.7345   0.7345   1.8036   1.8036   3.5283   3.5283   4.4968   4.4968

          k =-0.5000-0.5000 0.0000 ( 15928 PWs)   bands (ev):

    -2.0569  -2.0569  -2.0569  -2.0569  -0.7352  -0.7352  -0.7352  -0.7352
     1.2395   1.2395   1.2395   1.2395   3.9978   3.9978   3.9978   3.9978

     the Fermi energy is     4.0075 ev

!    total energy              =     -99.59462520 Ry
     Harris-Foulkes estimate   =     -99.59462520 Ry
     estimated scf accuracy    <          1.3E-09 Ry

     The total energy is the sum of the following terms:

     one-electron contribution =     -24.33897860 Ry
     hartree contribution      =      20.65794823 Ry
     xc contribution           =     -79.75240099 Ry
     ewald contribution        =     -16.16123217 Ry
     smearing contrib. (-TS)   =       0.00003832 Ry

     convergence has been achieved in   9 iterations

     Forces acting on atoms (Ry/au):

     atom    1 type  1   force =     0.00000000    0.00000000    0.00045247
     atom    2 type  1   force =     0.00000000    0.00000000    0.00045248
     atom    3 type  1   force =     0.00000000    0.00000000   -0.00056366
     atom    4 type  1   force =     0.00000000    0.00000000   -0.00056366
     atom    5 type  1   force =     0.00000000    0.00000000    0.00056366
     atom    6 type  1   force =     0.00000000    0.00000000    0.00056366
     atom    7 type  1   force =     0.00000000    0.00000000   -0.00045248
     atom    8 type  1   force =     0.00000000    0.00000000   -0.00045248

     Total force =     0.001446     Total SCF correction =     0.000035


     entering subroutine stress ...

          total   stress  (Ry/bohr**3)                   (kbar)     P=  -26.35
  -0.00024232   0.00000000   0.00000000        -35.65      0.00      0.00
   0.00000000  -0.00024232   0.00000000          0.00    -35.65      0.00
   0.00000000   0.00000000  -0.00005271          0.00      0.00     -7.75


     bfgs converged in  11 scf cycles and  10 bfgs steps
     (criteria: energy <  1.0E-04, force <  1.0E-03)

     End of BFGS Geometry Optimization

     Final energy   =     -99.5946252021 Ry
Begin final coordinates

ATOMIC_POSITIONS (crystal)
Al       0.000000000   0.000000000  -0.007629192
Al       0.500000000   0.500000000  -0.007629198
Al       0.500000000   0.000000000   0.164706883
Al       0.000000000   0.500000000   0.164706883
Al       0.000000000   0.000000000   0.335293117
Al       0.500000000   0.500000000   0.335293116
Al       0.500000000   0.000000000   0.507629195
Al       0.000000000   0.500000000   0.507629195
End final coordinates



     Writing output data file Al_100_2_1.save

     init_run     :     16.31s CPU     19.00s WALL (       1 calls)
     electrons    :   2199.84s CPU   2817.64s WALL (      11 calls)
     update_pot   :      1.49s CPU      1.72s WALL (      10 calls)
     forces       :     42.61s CPU     43.53s WALL (      11 calls)
     stress       :     88.26s CPU     90.10s WALL (      11 calls)

     Called by init_run:
     wfcinit      :     15.89s CPU     18.57s WALL (       1 calls)
     potinit      :      0.07s CPU      0.08s WALL (       1 calls)

     Called by electrons:
     c_bands      :   1921.50s CPU   2435.17s WALL (     113 calls)
     sum_band     :    259.34s CPU    359.03s WALL (     113 calls)
     v_of_rho     :      7.80s CPU      9.16s WALL (     123 calls)
     newd         :      5.34s CPU      5.71s WALL (     123 calls)
     mix_rho      :      6.74s CPU      9.55s WALL (     113 calls)

     Called by c_bands:
     init_us_2    :     39.08s CPU     48.22s WALL (   11205 calls)
     cegterg      :   1880.45s CPU   2385.33s WALL (    5085 calls)

     Called by *egterg:
     h_psi        :   1116.04s CPU   1530.60s WALL (   14278 calls)
     s_psi        :    176.69s CPU    187.23s WALL (   14278 calls)
     g_psi        :      6.47s CPU      8.15s WALL (    9148 calls)
     cdiaghg      :      6.59s CPU      8.05s WALL (   13738 calls)

     Called by h_psi:
     add_vuspsi   :    180.33s CPU    187.73s WALL (   14278 calls)

     General routines
     calbec       :    282.36s CPU    300.10s WALL (   20353 calls)
     fft          :      4.04s CPU      5.88s WALL (    1876 calls)
     ffts         :      4.08s CPU      6.12s WALL (    1971 calls)
     fftw         :    855.26s CPU   1306.71s WALL (  459302 calls)
     davcio       :      0.00s CPU      0.10s WALL (      45 calls)

     Parallel routines
     fft_scatter  :     28.10s CPU     47.90s WALL (  463149 calls)

     PWSCF        : 39m10.00s CPU    49m33.73s WALL


   This run was terminated on:  15:48:18  28May2020            

=------------------------------------------------------------------------------=
   JOB DONE.
=------------------------------------------------------------------------------=
