
     Program PWSCF v.6.4.1 starts on  6Jun2020 at 22:16:46 

     This program is part of the open-source Quantum ESPRESSO suite
     for quantum simulation of materials; please cite
         "P. Giannozzi et al., J. Phys.:Condens. Matter 21 395502 (2009);
         "P. Giannozzi et al., J. Phys.:Condens. Matter 29 465901 (2017);
          URL http://www.quantum-espresso.org", 
     in publications or presentations arising from this work. More details at
     http://www.quantum-espresso.org/quote

     Parallel version (MPI & OpenMP), running on       1 processor cores
     Number of MPI processes:                 1
     Threads/MPI process:                     1

     MPI processes distributed on     1 nodes
     Reading input from Al_111_H23_br_site_1.pw.in

     Current dimensions of program PWSCF are:
     Max number of different atomic species (ntypx) = 10
     Max number of k-points (npk) =  40000
     Max angular momentum in pseudopotentials (lmaxx) =  3
               file H.pbe-rrkjus.UPF: wavefunction(s)  1S renormalized

     Subspace diagonalization in iterative solution of the eigenvalue problem:
     a serial algorithm will be used

 
     G-vector sticks info
     --------------------
     sticks:   dense  smooth     PW     G-vecs:    dense   smooth      PW
     Sum        1189     955    271               490481   351617   53557
 


     bravais-lattice index     =            4
     lattice parameter (alat)  =      10.7520  a.u.
     unit-cell volume          =   15820.6847 (a.u.)^3
     number of atoms/cell      =           37
     number of atomic types    =            2
     number of electrons       =       109.00
     number of Kohn-Sham states=           66
     kinetic-energy cutoff     =      30.0000  Ry
     charge density cutoff     =     150.0000  Ry
     convergence threshold     =      3.6E-05
     mixing beta               =       0.3000
     number of iterations used =            8  local-TF  mixing
     Exchange-correlation      =  SLA  PW   PBE  PBE ( 1  4  3  4 0 0)
     nstep                     =           50


     celldm(1)=  10.752000  celldm(2)=   0.000000  celldm(3)=  14.696938
     celldm(4)=   0.000000  celldm(5)=   0.000000  celldm(6)=   0.000000

     crystal axes: (cart. coord. in units of alat)
               a(1) = (   1.000000   0.000000   0.000000 )  
               a(2) = (  -0.500000   0.866025   0.000000 )  
               a(3) = (   0.000000   0.000000  14.696938 )  

     reciprocal axes: (cart. coord. in units 2 pi/alat)
               b(1) = (  1.000000  0.577350  0.000000 )  
               b(2) = (  0.000000  1.154701  0.000000 )  
               b(3) = (  0.000000  0.000000  0.068041 )  


     PseudoPot. # 1 for Al read from file:
     ./Al.pbe-n-van.UPF
     MD5 check sum: b11ded24487aef5bc42d5c7a2e22a7b6
     Pseudo is Ultrasoft + core correction, Zval =  3.0
     Generated by new atomic code, or converted to UPF format
     Using radial grid of  893 points,  2 beta functions with: 
                l(1) =   0
                l(2) =   1
     Q(r) pseudized with  8 coefficients,  rinner =    0.900   0.900   0.900


     PseudoPot. # 2 for H  read from file:
     ./H.pbe-rrkjus.UPF
     MD5 check sum: 0433647300470310da31d564c103eed6
     Pseudo is Ultrasoft, Zval =  1.0
     Generated by new atomic code, or converted to UPF format
     Using radial grid of 1061 points,  2 beta functions with: 
                l(1) =   0
                l(2) =   0
     Q(r) pseudized with 0 coefficients 


     atomic species   valence    mass     pseudopotential
        Al             3.00    26.98000     Al( 1.00)
        H              1.00     1.00790     H ( 1.00)

      2 Sym. Ops. (no inversion) found ( 1 have fractional translation)



   Cartesian axes

     site n.     atom                  positions (alat units)
         1           Al  tau(   1) = (   0.2500002   0.1443374   0.8164957  )
         2           Al  tau(   2) = (   0.0000002   0.5773501   0.8164957  )
         3           Al  tau(   3) = (   0.7500002   0.1443374   0.8164957  )
         4           Al  tau(   4) = (   0.5000002   0.5773501   0.8164957  )
         5           Al  tau(   5) = (   0.0000000   0.0000000   0.0000000  )
         6           Al  tau(   6) = (  -0.2500000   0.4330127   0.0000000  )
         7           Al  tau(   7) = (   0.5000000   0.0000000   0.0000000  )
         8           Al  tau(   8) = (   0.2500000   0.4330127   0.0000000  )
         9           Al  tau(   9) = (  -0.0000003   0.2886753   1.6329939  )
        10           Al  tau(  10) = (  -0.2500003   0.7216880   1.6329939  )
        11           Al  tau(  11) = (   0.4999998   0.2886753   1.6329939  )
        12           Al  tau(  12) = (   0.2499998   0.7216880   1.6329939  )
        13           Al  tau(  13) = (   0.2500002   0.1443374   3.2659855  )
        14           Al  tau(  14) = (   0.0000002   0.5773501   3.2659855  )
        15           Al  tau(  15) = (   0.7500002   0.1443374   3.2659855  )
        16           Al  tau(  16) = (   0.5000002   0.5773501   3.2659855  )
        17           Al  tau(  17) = (   0.0000000   0.0000000   2.4494897  )
        18           Al  tau(  18) = (  -0.2500000   0.4330127   2.4494897  )
        19           Al  tau(  19) = (   0.5000000   0.0000000   2.4494897  )
        20           Al  tau(  20) = (   0.2500000   0.4330127   2.4494897  )
        21           Al  tau(  21) = (  -0.0000003   0.2886753   4.0824837  )
        22           Al  tau(  22) = (  -0.2500003   0.7216880   4.0824837  )
        23           Al  tau(  23) = (   0.4999998   0.2886753   4.0824837  )
        24           Al  tau(  24) = (   0.2499998   0.7216880   4.0824837  )
        25           Al  tau(  25) = (   0.2500002   0.1443374   5.7154752  )
        26           Al  tau(  26) = (   0.0000002   0.5773501   5.7154752  )
        27           Al  tau(  27) = (   0.7500002   0.1443374   5.7154752  )
        28           Al  tau(  28) = (   0.5000002   0.5773501   5.7154752  )
        29           Al  tau(  29) = (   0.0000000   0.0000000   4.8989795  )
        30           Al  tau(  30) = (  -0.2500000   0.4330127   4.8989795  )
        31           Al  tau(  31) = (   0.5000000   0.0000000   4.8989795  )
        32           Al  tau(  32) = (   0.2500000   0.4330127   4.8989795  )
        33           Al  tau(  33) = (  -0.0000003   0.2886753   6.5319734  )
        34           Al  tau(  34) = (  -0.2500003   0.7216880   6.5319734  )
        35           Al  tau(  35) = (   0.4999998   0.2886753   6.5319734  )
        36           Al  tau(  36) = (   0.2499998   0.7216880   6.5319734  )
        37           H   tau(  37) = (   0.3749983   0.0721688   6.5319734  )

     number of k points=   111  Marzari-Vanderbilt smearing, width (Ry)=  0.0250

     Number of k-points >= 100: set verbosity='high' to print them.

     Dense  grid:   490481 G-vectors     FFT dimensions: (  48,  48, 625)

     Smooth grid:   351617 G-vectors     FFT dimensions: (  40,  40, 576)

     Estimated max dynamical RAM per process >       6.17 GB

     Initial potential from superposition of free atoms

     starting charge  108.81504, renormalised to  109.00000

     negative rho (up, down):  3.368E-04 0.000E+00
     Starting wfcs are  145 randomized atomic wfcs

     total cpu time spent up to now is      527.6 secs

     Self-consistent Calculation

     iteration #  1     ecut=    30.00 Ry     beta= 0.30
     Davidson diagonalization with overlap
     ethr =  1.00E-02,  avg # of iterations =  4.0

     negative rho (up, down):  6.026E-03 0.000E+00

     total cpu time spent up to now is     1488.0 secs

     total energy              =    -449.98715710 Ry
     Harris-Foulkes estimate   =    -453.45874935 Ry
     estimated scf accuracy    <    1399.99523317 Ry

     iteration #  2     ecut=    30.00 Ry     beta= 0.30
     Davidson diagonalization with overlap
     ethr =  1.00E-02,  avg # of iterations =  1.1

     negative rho (up, down):  1.437E-01 0.000E+00

     total cpu time spent up to now is     2083.3 secs

     total energy              =    -444.21311550 Ry
     Harris-Foulkes estimate   =    -450.46701235 Ry
     estimated scf accuracy    <     742.13740786 Ry

     iteration #  3     ecut=    30.00 Ry     beta= 0.30
     Davidson diagonalization with overlap
     ethr =  1.00E-02,  avg # of iterations =  5.5

     negative rho (up, down):  1.897E-01 0.000E+00

     total cpu time spent up to now is     2848.2 secs

     total energy              =    -447.95602229 Ry
     Harris-Foulkes estimate   =    -447.51401337 Ry
     estimated scf accuracy    <      34.47077181 Ry

     iteration #  4     ecut=    30.00 Ry     beta= 0.30
     Davidson diagonalization with overlap
     ethr =  1.00E-02,  avg # of iterations =  1.3

     negative rho (up, down):  1.303E-01 0.000E+00

     total cpu time spent up to now is     3456.8 secs

     total energy              =    -446.17026677 Ry
     Harris-Foulkes estimate   =    -448.07609341 Ry
     estimated scf accuracy    <      88.28830320 Ry

     iteration #  5     ecut=    30.00 Ry     beta= 0.30
     Davidson diagonalization with overlap
     ethr =  1.00E-02,  avg # of iterations =  5.7

     negative rho (up, down):  1.017E-01 0.000E+00

     total cpu time spent up to now is     4235.9 secs

     total energy              =    -447.76019321 Ry
     Harris-Foulkes estimate   =    -448.20955625 Ry
     estimated scf accuracy    <      45.41347651 Ry

     iteration #  6     ecut=    30.00 Ry     beta= 0.30
     Davidson diagonalization with overlap
     ethr =  1.00E-02,  avg # of iterations =  1.5

     negative rho (up, down):  9.619E-02 0.000E+00

     total cpu time spent up to now is     4840.2 secs

     total energy              =    -447.72920216 Ry
     Harris-Foulkes estimate   =    -447.86281183 Ry
     estimated scf accuracy    <      22.14677811 Ry

     iteration #  7     ecut=    30.00 Ry     beta= 0.30
     Davidson diagonalization with overlap
     ethr =  1.00E-02,  avg # of iterations =  1.1

     negative rho (up, down):  9.661E-02 0.000E+00

     total cpu time spent up to now is     5439.6 secs

     total energy              =    -447.77589946 Ry
     Harris-Foulkes estimate   =    -447.77157373 Ry
     estimated scf accuracy    <       6.77882726 Ry

     iteration #  8     ecut=    30.00 Ry     beta= 0.30
     Davidson diagonalization with overlap
     ethr =  6.22E-03,  avg # of iterations =  1.1

     negative rho (up, down):  9.289E-02 0.000E+00

     total cpu time spent up to now is     6036.3 secs

     total energy              =    -447.75560394 Ry
     Harris-Foulkes estimate   =    -447.78423032 Ry
     estimated scf accuracy    <       8.40102300 Ry

     iteration #  9     ecut=    30.00 Ry     beta= 0.30
     Davidson diagonalization with overlap
     ethr =  6.22E-03,  avg # of iterations =  1.1

     negative rho (up, down):  8.596E-02 0.000E+00

     total cpu time spent up to now is     6631.0 secs

     total energy              =    -447.73953388 Ry
     Harris-Foulkes estimate   =    -447.76688077 Ry
     estimated scf accuracy    <       4.64206580 Ry

     iteration # 10     ecut=    30.00 Ry     beta= 0.30
     Davidson diagonalization with overlap
     ethr =  4.26E-03,  avg # of iterations =  1.2

     negative rho (up, down):  8.135E-02 0.000E+00

     total cpu time spent up to now is     7229.8 secs

     total energy              =    -447.73900975 Ry
     Harris-Foulkes estimate   =    -447.75623688 Ry
     estimated scf accuracy    <       2.79646019 Ry

     iteration # 11     ecut=    30.00 Ry     beta= 0.30
     Davidson diagonalization with overlap
     ethr =  2.57E-03,  avg # of iterations =  1.5

     negative rho (up, down):  7.386E-02 0.000E+00

     total cpu time spent up to now is     7843.6 secs

     total energy              =    -447.75384447 Ry
     Harris-Foulkes estimate   =    -447.75712277 Ry
     estimated scf accuracy    <       1.49588121 Ry

     iteration # 12     ecut=    30.00 Ry     beta= 0.30
     Davidson diagonalization with overlap
     ethr =  1.37E-03,  avg # of iterations =  2.8

     negative rho (up, down):  7.317E-02 0.000E+00

     total cpu time spent up to now is     8480.0 secs

     total energy              =    -447.77241889 Ry
     Harris-Foulkes estimate   =    -447.77487588 Ry
     estimated scf accuracy    <       4.10746304 Ry

     iteration # 13     ecut=    30.00 Ry     beta= 0.30
     Davidson diagonalization with overlap
     ethr =  1.37E-03,  avg # of iterations =  1.3

     negative rho (up, down):  7.072E-02 0.000E+00

     total cpu time spent up to now is     9081.3 secs

     total energy              =    -447.75939934 Ry
     Harris-Foulkes estimate   =    -447.77490744 Ry
     estimated scf accuracy    <       4.26811564 Ry

     iteration # 14     ecut=    30.00 Ry     beta= 0.30
     Davidson diagonalization with overlap
     ethr =  1.37E-03,  avg # of iterations =  1.1

     negative rho (up, down):  5.146E-02 0.000E+00

     total cpu time spent up to now is     9678.6 secs

     total energy              =    -447.69531885 Ry
     Harris-Foulkes estimate   =    -447.76389856 Ry
     estimated scf accuracy    <       2.00895679 Ry

     iteration # 15     ecut=    30.00 Ry     beta= 0.30
     Davidson diagonalization with overlap
     ethr =  1.37E-03,  avg # of iterations =  2.5

     negative rho (up, down):  5.908E-02 0.000E+00

     total cpu time spent up to now is    10298.1 secs

     total energy              =    -447.70738274 Ry
     Harris-Foulkes estimate   =    -447.81410371 Ry
     estimated scf accuracy    <      15.12279737 Ry

     iteration # 16     ecut=    30.00 Ry     beta= 0.30
     Davidson diagonalization with overlap
     ethr =  1.37E-03,  avg # of iterations =  1.3

     negative rho (up, down):  5.789E-02 0.000E+00

     total cpu time spent up to now is    10895.6 secs

     total energy              =    -447.75487901 Ry
     Harris-Foulkes estimate   =    -447.75317336 Ry
     estimated scf accuracy    <       0.32004026 Ry

     iteration # 17     ecut=    30.00 Ry     beta= 0.30
     Davidson diagonalization with overlap
     ethr =  2.94E-04,  avg # of iterations =  2.6

     negative rho (up, down):  5.781E-02 0.000E+00

     total cpu time spent up to now is    11521.1 secs

     total energy              =    -447.75510272 Ry
     Harris-Foulkes estimate   =    -447.75691784 Ry
     estimated scf accuracy    <       0.76936937 Ry

     iteration # 18     ecut=    30.00 Ry     beta= 0.30
     Davidson diagonalization with overlap
     ethr =  2.94E-04,  avg # of iterations =  1.0

     negative rho (up, down):  5.302E-02 0.000E+00

     total cpu time spent up to now is    12114.5 secs

     total energy              =    -447.75457512 Ry
     Harris-Foulkes estimate   =    -447.75551518 Ry
     estimated scf accuracy    <       0.36865204 Ry

     iteration # 19     ecut=    30.00 Ry     beta= 0.30
     Davidson diagonalization with overlap
     ethr =  2.94E-04,  avg # of iterations =  1.0

     negative rho (up, down):  4.451E-02 0.000E+00

     total cpu time spent up to now is    12707.8 secs

     total energy              =    -447.75625567 Ry
     Harris-Foulkes estimate   =    -447.75493695 Ry
     estimated scf accuracy    <       0.16326764 Ry

     iteration # 20     ecut=    30.00 Ry     beta= 0.30
     Davidson diagonalization with overlap
     c_bands:  1 eigenvalues not converged
     ethr =  1.50E-04,  avg # of iterations =  3.0

     negative rho (up, down):  4.448E-02 0.000E+00

     total cpu time spent up to now is    13357.4 secs

     total energy              =    -447.75327799 Ry
     Harris-Foulkes estimate   =    -447.75855381 Ry
     estimated scf accuracy    <       0.89950923 Ry

     iteration # 21     ecut=    30.00 Ry     beta= 0.30
     Davidson diagonalization with overlap
     ethr =  1.50E-04,  avg # of iterations =  1.2

     negative rho (up, down):  3.567E-02 0.000E+00

     total cpu time spent up to now is    13958.6 secs

     total energy              =    -447.75342782 Ry
     Harris-Foulkes estimate   =    -447.75494334 Ry
     estimated scf accuracy    <       0.13073401 Ry

     iteration # 22     ecut=    30.00 Ry     beta= 0.30
     Davidson diagonalization with overlap
     ethr =  1.20E-04,  avg # of iterations =  1.3

     negative rho (up, down):  3.262E-02 0.000E+00

     total cpu time spent up to now is    14560.2 secs

     total energy              =    -447.75257008 Ry
     Harris-Foulkes estimate   =    -447.75388726 Ry
     estimated scf accuracy    <       0.02952358 Ry

     iteration # 23     ecut=    30.00 Ry     beta= 0.30
     Davidson diagonalization with overlap
     c_bands:  2 eigenvalues not converged
     c_bands:  1 eigenvalues not converged
     c_bands:  4 eigenvalues not converged
     c_bands:  1 eigenvalues not converged
     c_bands:  3 eigenvalues not converged
     c_bands:  1 eigenvalues not converged
     c_bands:  2 eigenvalues not converged
     c_bands:  2 eigenvalues not converged
     ethr =  2.71E-05,  avg # of iterations =  8.2

     negative rho (up, down):  3.235E-02 0.000E+00

     total cpu time spent up to now is    15369.9 secs

     total energy              =    -447.75862601 Ry
     Harris-Foulkes estimate   =    -447.75797295 Ry
     estimated scf accuracy    <       0.15337737 Ry

     iteration # 24     ecut=    30.00 Ry     beta= 0.30
     Davidson diagonalization with overlap
     ethr =  2.71E-05,  avg # of iterations =  1.1

     negative rho (up, down):  3.059E-02 0.000E+00

     total cpu time spent up to now is    15964.7 secs

     total energy              =    -447.75680018 Ry
     Harris-Foulkes estimate   =    -447.75872301 Ry
     estimated scf accuracy    <       0.20622643 Ry

     iteration # 25     ecut=    30.00 Ry     beta= 0.30
     Davidson diagonalization with overlap
     ethr =  2.71E-05,  avg # of iterations =  1.0

     negative rho (up, down):  3.118E-02 0.000E+00

     total cpu time spent up to now is    16559.9 secs

     total energy              =    -447.75721704 Ry
     Harris-Foulkes estimate   =    -447.75717452 Ry
     estimated scf accuracy    <       0.04943671 Ry

     iteration # 26     ecut=    30.00 Ry     beta= 0.30
     Davidson diagonalization with overlap
     ethr =  2.71E-05,  avg # of iterations =  1.0

     negative rho (up, down):  3.118E-02 0.000E+00

     total cpu time spent up to now is    17151.8 secs

     total energy              =    -447.75743645 Ry
     Harris-Foulkes estimate   =    -447.75725251 Ry
     estimated scf accuracy    <       0.06106521 Ry

     iteration # 27     ecut=    30.00 Ry     beta= 0.30
     Davidson diagonalization with overlap
     ethr =  2.71E-05,  avg # of iterations =  1.0

     negative rho (up, down):  3.131E-02 0.000E+00

     total cpu time spent up to now is    17744.5 secs

     total energy              =    -447.75712689 Ry
     Harris-Foulkes estimate   =    -447.75745988 Ry
     estimated scf accuracy    <       0.08293397 Ry

     iteration # 28     ecut=    30.00 Ry     beta= 0.30
     Davidson diagonalization with overlap
     ethr =  2.71E-05,  avg # of iterations =  1.0

     negative rho (up, down):  3.071E-02 0.000E+00

     total cpu time spent up to now is    18336.6 secs

     total energy              =    -447.75682125 Ry
     Harris-Foulkes estimate   =    -447.75717941 Ry
     estimated scf accuracy    <       0.04685187 Ry

     iteration # 29     ecut=    30.00 Ry     beta= 0.30
     Davidson diagonalization with overlap
     ethr =  2.71E-05,  avg # of iterations =  1.1

     negative rho (up, down):  3.019E-02 0.000E+00

     total cpu time spent up to now is    18935.1 secs

     total energy              =    -447.75686116 Ry
     Harris-Foulkes estimate   =    -447.75698010 Ry
     estimated scf accuracy    <       0.01051541 Ry

     iteration # 30     ecut=    30.00 Ry     beta= 0.30
     Davidson diagonalization with overlap
     c_bands:  1 eigenvalues not converged
     ethr =  9.65E-06,  avg # of iterations =  3.8

     negative rho (up, down):  2.878E-02 0.000E+00

     total cpu time spent up to now is    19597.6 secs

     total energy              =    -447.75692936 Ry
     Harris-Foulkes estimate   =    -447.75723172 Ry
     estimated scf accuracy    <       0.00804783 Ry

     iteration # 31     ecut=    30.00 Ry     beta= 0.30
     Davidson diagonalization with overlap
     c_bands:  1 eigenvalues not converged
     ethr =  7.38E-06,  avg # of iterations =  2.0

     negative rho (up, down):  2.683E-02 0.000E+00

     total cpu time spent up to now is    20216.5 secs

     total energy              =    -447.75700338 Ry
     Harris-Foulkes estimate   =    -447.75703911 Ry
     estimated scf accuracy    <       0.00301057 Ry

     iteration # 32     ecut=    30.00 Ry     beta= 0.30
     Davidson diagonalization with overlap
     c_bands:  1 eigenvalues not converged
     c_bands:  1 eigenvalues not converged
     c_bands:  3 eigenvalues not converged
     c_bands:  2 eigenvalues not converged
     c_bands:  1 eigenvalues not converged
     ethr =  2.76E-06,  avg # of iterations =  5.7

     negative rho (up, down):  2.306E-02 0.000E+00

     total cpu time spent up to now is    20922.9 secs

     total energy              =    -447.75769614 Ry
     Harris-Foulkes estimate   =    -447.75734651 Ry
     estimated scf accuracy    <       0.05721666 Ry

     iteration # 33     ecut=    30.00 Ry     beta= 0.30
     Davidson diagonalization with overlap
     c_bands:  4 eigenvalues not converged
     c_bands:  1 eigenvalues not converged
     ethr =  2.76E-06,  avg # of iterations =  6.1

     negative rho (up, down):  1.992E-02 0.000E+00

     total cpu time spent up to now is    21625.2 secs

     total energy              =    -447.75669270 Ry
     Harris-Foulkes estimate   =    -447.75817834 Ry
     estimated scf accuracy    <       0.25498422 Ry

     iteration # 34     ecut=    30.00 Ry     beta= 0.30
     Davidson diagonalization with overlap
     c_bands:  1 eigenvalues not converged
     ethr =  2.76E-06,  avg # of iterations =  3.6

     negative rho (up, down):  1.732E-02 0.000E+00

     total cpu time spent up to now is    22270.6 secs

     total energy              =    -447.75761435 Ry
     Harris-Foulkes estimate   =    -447.75708605 Ry
     estimated scf accuracy    <       0.08043917 Ry

     iteration # 35     ecut=    30.00 Ry     beta= 0.30
     Davidson diagonalization with overlap
     ethr =  2.76E-06,  avg # of iterations =  2.2

     negative rho (up, down):  1.446E-02 0.000E+00

     total cpu time spent up to now is    22882.8 secs

     total energy              =    -447.75712700 Ry
     Harris-Foulkes estimate   =    -447.75780524 Ry
     estimated scf accuracy    <       0.20760622 Ry

     iteration # 36     ecut=    30.00 Ry     beta= 0.30
     Davidson diagonalization with overlap
     ethr =  2.76E-06,  avg # of iterations =  1.5

     negative rho (up, down):  1.315E-02 0.000E+00

     total cpu time spent up to now is    23484.8 secs

     total energy              =    -447.75665725 Ry
     Harris-Foulkes estimate   =    -447.75720454 Ry
     estimated scf accuracy    <       0.16411959 Ry

     iteration # 37     ecut=    30.00 Ry     beta= 0.30
     Davidson diagonalization with overlap
     ethr =  2.76E-06,  avg # of iterations =  1.1

     negative rho (up, down):  1.265E-02 0.000E+00

     total cpu time spent up to now is    24084.0 secs

     total energy              =    -447.75625166 Ry
     Harris-Foulkes estimate   =    -447.75671402 Ry
     estimated scf accuracy    <       0.09984912 Ry

     iteration # 38     ecut=    30.00 Ry     beta= 0.30
     Davidson diagonalization with overlap
     ethr =  2.76E-06,  avg # of iterations =  2.2

     negative rho (up, down):  1.190E-02 0.000E+00

     total cpu time spent up to now is    24703.6 secs

     total energy              =    -447.75599775 Ry
     Harris-Foulkes estimate   =    -447.75636770 Ry
     estimated scf accuracy    <       0.04007244 Ry

     iteration # 39     ecut=    30.00 Ry     beta= 0.30
     Davidson diagonalization with overlap
     c_bands:  3 eigenvalues not converged
     c_bands:  1 eigenvalues not converged
     ethr =  2.76E-06,  avg # of iterations =  4.2

     negative rho (up, down):  1.157E-02 0.000E+00

     total cpu time spent up to now is    25355.7 secs

     total energy              =    -447.75615917 Ry
     Harris-Foulkes estimate   =    -447.75617390 Ry
     estimated scf accuracy    <       0.00132213 Ry

     iteration # 40     ecut=    30.00 Ry     beta= 0.30
     Davidson diagonalization with overlap
     c_bands:  1 eigenvalues not converged
     c_bands:  1 eigenvalues not converged
     ethr =  1.21E-06,  avg # of iterations =  3.6

     negative rho (up, down):  1.164E-02 0.000E+00

     total cpu time spent up to now is    26012.3 secs

     total energy              =    -447.75621064 Ry
     Harris-Foulkes estimate   =    -447.75618481 Ry
     estimated scf accuracy    <       0.00150340 Ry

     iteration # 41     ecut=    30.00 Ry     beta= 0.30
     Davidson diagonalization with overlap
     ethr =  1.21E-06,  avg # of iterations =  1.3

     negative rho (up, down):  1.011E-02 0.000E+00

     total cpu time spent up to now is    26613.6 secs

     total energy              =    -447.75611184 Ry
     Harris-Foulkes estimate   =    -447.75622315 Ry
     estimated scf accuracy    <       0.00202131 Ry

     iteration # 42     ecut=    30.00 Ry     beta= 0.30
     Davidson diagonalization with overlap
     ethr =  1.21E-06,  avg # of iterations =  1.1

     negative rho (up, down):  9.271E-03 0.000E+00

     total cpu time spent up to now is    27209.8 secs

     total energy              =    -447.75608458 Ry
     Harris-Foulkes estimate   =    -447.75612758 Ry
     estimated scf accuracy    <       0.00070753 Ry

     iteration # 43     ecut=    30.00 Ry     beta= 0.30
     Davidson diagonalization with overlap
     ethr =  6.49E-07,  avg # of iterations =  1.7

     negative rho (up, down):  7.513E-03 0.000E+00

     total cpu time spent up to now is    27819.0 secs

     total energy              =    -447.75606592 Ry
     Harris-Foulkes estimate   =    -447.75610020 Ry
     estimated scf accuracy    <       0.00036378 Ry

     iteration # 44     ecut=    30.00 Ry     beta= 0.30
     Davidson diagonalization with overlap
     ethr =  3.34E-07,  avg # of iterations =  1.9

     negative rho (up, down):  7.111E-03 0.000E+00

     total cpu time spent up to now is    28443.6 secs

     total energy              =    -447.75605162 Ry
     Harris-Foulkes estimate   =    -447.75607785 Ry
     estimated scf accuracy    <       0.00046023 Ry

     iteration # 45     ecut=    30.00 Ry     beta= 0.30
     Davidson diagonalization with overlap
     ethr =  3.34E-07,  avg # of iterations =  1.6

     negative rho (up, down):  4.627E-03 0.000E+00

     total cpu time spent up to now is    29047.8 secs

     total energy              =    -447.75603771 Ry
     Harris-Foulkes estimate   =    -447.75605947 Ry
     estimated scf accuracy    <       0.00007702 Ry

     iteration # 46     ecut=    30.00 Ry     beta= 0.30
     Davidson diagonalization with overlap
     c_bands:  1 eigenvalues not converged
     ethr =  7.07E-08,  avg # of iterations =  4.7

     negative rho (up, down):  4.135E-03 0.000E+00

     total cpu time spent up to now is    29732.0 secs

     total energy              =    -447.75604244 Ry
     Harris-Foulkes estimate   =    -447.75604465 Ry
     estimated scf accuracy    <       0.00028685 Ry

     iteration # 47     ecut=    30.00 Ry     beta= 0.30
     Davidson diagonalization with overlap
     c_bands:  1 eigenvalues not converged
     ethr =  7.07E-08,  avg # of iterations =  1.2

     negative rho (up, down):  2.986E-03 0.000E+00

     total cpu time spent up to now is    30327.3 secs

     total energy              =    -447.75603656 Ry
     Harris-Foulkes estimate   =    -447.75604320 Ry
     estimated scf accuracy    <       0.00012838 Ry

     iteration # 48     ecut=    30.00 Ry     beta= 0.30
     Davidson diagonalization with overlap
     c_bands:  1 eigenvalues not converged
     ethr =  7.07E-08,  avg # of iterations =  1.5

     negative rho (up, down):  2.635E-03 0.000E+00

     total cpu time spent up to now is    30940.0 secs

     total energy              =    -447.75603568 Ry
     Harris-Foulkes estimate   =    -447.75603825 Ry
     estimated scf accuracy    <       0.00005416 Ry

     iteration # 49     ecut=    30.00 Ry     beta= 0.30
     Davidson diagonalization with overlap
     ethr =  4.97E-08,  avg # of iterations =  1.1

     negative rho (up, down):  1.007E-04 0.000E+00

     total cpu time spent up to now is    31525.7 secs

     End of self-consistent calculation

     Number of k-points >= 100: set verbosity='high' to print the bands.

     the Fermi energy is    -0.9868 ev

!    total energy              =    -447.75601914 Ry
     Harris-Foulkes estimate   =    -447.75603622 Ry
     estimated scf accuracy    <       0.00000818 Ry

     The total energy is the sum of the following terms:

     one-electron contribution =   -9768.75749296 Ry
     hartree contribution      =    4902.19834588 Ry
     xc contribution           =    -356.05219002 Ry
     ewald contribution        =    4774.85338999 Ry
     smearing contrib. (-TS)   =       0.00192797 Ry

     convergence has been achieved in  49 iterations

     negative rho (up, down):  1.007E-04 0.000E+00

     Forces acting on atoms (cartesian axes, Ry/au):

     atom    1 type  1   force =     0.00002629   -0.00001518    0.00022355
     atom    2 type  1   force =    -0.00008170   -0.00001792    0.00022197
     atom    3 type  1   force =    -0.00002533    0.00007971    0.00022197
     atom    4 type  1   force =     0.00008155   -0.00004708    0.00021996
     atom    5 type  1   force =    -0.00000762   -0.00000288    0.00415410
     atom    6 type  1   force =     0.00000159   -0.00000092    0.00414805
     atom    7 type  1   force =     0.00000685   -0.00000396    0.00416309
     atom    8 type  1   force =    -0.00000132    0.00000804    0.00415410
     atom    9 type  1   force =    -0.00000418    0.00000241    0.00004408
     atom   10 type  1   force =     0.00004900    0.00002317    0.00003978
     atom   11 type  1   force =     0.00000443   -0.00005402    0.00003978
     atom   12 type  1   force =    -0.00004882    0.00002819    0.00003697
     atom   13 type  1   force =     0.00000186   -0.00000108    0.00000475
     atom   14 type  1   force =     0.00000007    0.00000249    0.00000171
     atom   15 type  1   force =    -0.00000212   -0.00000131    0.00000171
     atom   16 type  1   force =    -0.00000006    0.00000004   -0.00000325
     atom   17 type  1   force =    -0.00004563   -0.00005647    0.00002019
     atom   18 type  1   force =    -0.00002605    0.00001504    0.00002542
     atom   19 type  1   force =     0.00004584   -0.00002647    0.00000561
     atom   20 type  1   force =     0.00002609    0.00006775    0.00002019
     atom   21 type  1   force =    -0.00001318    0.00000761   -0.00001195
     atom   22 type  1   force =     0.00001186   -0.00000840   -0.00002699
     atom   23 type  1   force =     0.00001320   -0.00000607   -0.00002699
     atom   24 type  1   force =    -0.00001180    0.00000681   -0.00000841
     atom   25 type  1   force =    -0.00005747    0.00003318   -0.00006259
     atom   26 type  1   force =    -0.00003802   -0.00000909   -0.00021278
     atom   27 type  1   force =    -0.00001114    0.00003747   -0.00021278
     atom   28 type  1   force =     0.00003385   -0.00001955   -0.00028209
     atom   29 type  1   force =     0.00014343    0.00002893   -0.00008708
     atom   30 type  1   force =    -0.00004697    0.00002712   -0.00011095
     atom   31 type  1   force =    -0.00014290    0.00008250   -0.00004099
     atom   32 type  1   force =     0.00004666   -0.00013868   -0.00008708
     atom   33 type  1   force =    -0.02001254    0.01155424   -0.00330308
     atom   34 type  1   force =    -0.07619007   -0.13192411   -0.00390236
     atom   35 type  1   force =     0.07615460    0.13194459   -0.00390236
     atom   36 type  1   force =     0.02005479   -0.01157864   -0.00333916
     atom   37 type  2   force =     0.00006492   -0.00003748   -0.00212610

     Total force =     0.218208     Total SCF correction =     0.002636


     Computing stress (Cartesian axis) and pressure


     negative rho (up, down):  1.007E-04 0.000E+00
          total   stress  (Ry/bohr**3)                   (kbar)     P=  -23.00
  -0.00020304   0.00001954   0.00000004        -29.87      2.87      0.01
   0.00001954  -0.00018048  -0.00000002          2.87    -26.55     -0.00
   0.00000004  -0.00000002  -0.00008546          0.01     -0.00    -12.57


     BFGS Geometry Optimization

     number of scf cycles    =   1
     number of bfgs steps    =   0

     energy   new            =    -447.7560191383 Ry

     new trust radius        =       0.1523946418 bohr
     new conv_thr            =       0.0000360000 Ry


ATOMIC_POSITIONS (crystal)
Al       0.333335122   0.166664863   0.055556912
Al       0.333324931   0.666664584   0.055556902
Al       0.833335416   0.166675054   0.055556902
Al       0.833338548   0.666661452   0.055556890
Al      -0.000000863  -0.000000309   0.000026288
Al       0.000000098   0.499999902   0.000026250
Al       0.500000425  -0.000000425   0.000026345
Al       0.500000309   0.500000863   0.000026288
Al       0.166666234   0.333333751   0.111111443
Al       0.166672295   0.833335981   0.111111416
Al       0.666664019   0.333327690   0.111111416
Al       0.666663481   0.833336519   0.111111398
Al       0.333333608   0.166666377   0.222222194
Al       0.333333632   0.666666775   0.222222175
Al       0.833333225   0.166666353   0.222222175
Al       0.833333488   0.666666512   0.222222144
Al      -0.000007276  -0.000006065   0.166666794
Al      -0.000001615   0.500001615   0.166666828
Al       0.500002843  -0.000002843   0.166666702
Al       0.500006065   0.500007276   0.166666794
Al       0.166665676   0.333334309   0.277777755
Al       0.166667145   0.833332590   0.277777660
Al       0.666667410   0.333332840   0.277777660
Al       0.666665776   0.833334224   0.277777778
Al       0.333329929   0.166670056   0.388888435
Al       0.333329468   0.666665532   0.388887485
Al       0.833334468   0.166670517   0.388887485
Al       0.833335591   0.666664409   0.388887046
Al       0.000014894   0.000003107   0.333332782
Al      -0.000002912   0.500002912   0.333332631
Al       0.499991140   0.000008860   0.333333074
Al       0.499996893   0.499985106   0.333332782
Al       0.165425636   0.334574349   0.444423595
Al       0.152496432   0.819165631   0.444419802
Al       0.680834369   0.347503553   0.444419802
Al       0.667909984   0.832090016   0.444423366
H        0.416669026   0.083329304   0.444431043



     Writing output data file Al_H23_3_3.save/
     NEW-OLD atomic charge density approx. for the potential

     negative rho (up, down):  1.080E-04 0.000E+00

     total cpu time spent up to now is    32077.0 secs

     Self-consistent Calculation

     iteration #  1     ecut=    30.00 Ry     beta= 0.30
     Davidson diagonalization with overlap
     c_bands:  2 eigenvalues not converged
     c_bands:  1 eigenvalues not converged
     c_bands:  3 eigenvalues not converged
     c_bands:  1 eigenvalues not converged
     c_bands:  1 eigenvalues not converged
     c_bands:  3 eigenvalues not converged
     c_bands:  1 eigenvalues not converged
     c_bands:  1 eigenvalues not converged
     c_bands:  2 eigenvalues not converged
     c_bands:  2 eigenvalues not converged
     ethr =  1.00E-06,  avg # of iterations =  9.5

     negative rho (up, down):  7.493E-05 0.000E+00

     total cpu time spent up to now is    33445.3 secs

     total energy              =    -447.79542141 Ry
     Harris-Foulkes estimate   =    -447.79758462 Ry
     estimated scf accuracy    <       0.44114096 Ry

     iteration #  2     ecut=    30.00 Ry     beta= 0.30
     Davidson diagonalization with overlap
     ethr =  4.05E-04,  avg # of iterations =  1.0

     negative rho (up, down):  5.690E-05 0.000E+00

     total cpu time spent up to now is    34058.6 secs

     total energy              =    -447.79240197 Ry
     Harris-Foulkes estimate   =    -447.79567251 Ry
     estimated scf accuracy    <       0.20705157 Ry

     iteration #  3     ecut=    30.00 Ry     beta= 0.30
     Davidson diagonalization with overlap
     ethr =  1.90E-04,  avg # of iterations =  1.0

     negative rho (up, down):  4.794E-05 0.000E+00

     total cpu time spent up to now is    34662.0 secs

     total energy              =    -447.79369926 Ry
     Harris-Foulkes estimate   =    -447.79372661 Ry
     estimated scf accuracy    <       0.00017574 Ry

     iteration #  4     ecut=    30.00 Ry     beta= 0.30
     Davidson diagonalization with overlap
     c_bands:  2 eigenvalues not converged
     c_bands:  2 eigenvalues not converged
     c_bands:  1 eigenvalues not converged
     c_bands:  1 eigenvalues not converged
     c_bands:  1 eigenvalues not converged
     ethr =  1.61E-07,  avg # of iterations = 10.6

     negative rho (up, down):  4.713E-05 0.000E+00

     total cpu time spent up to now is    35686.5 secs

     total energy              =    -447.79451532 Ry
     Harris-Foulkes estimate   =    -447.79446554 Ry
     estimated scf accuracy    <       0.08201581 Ry

     iteration #  5     ecut=    30.00 Ry     beta= 0.30
     Davidson diagonalization with overlap
     ethr =  1.61E-07,  avg # of iterations =  1.0

     negative rho (up, down):  4.060E-05 0.000E+00

     total cpu time spent up to now is    36320.4 secs

     total energy              =    -447.79429729 Ry
     Harris-Foulkes estimate   =    -447.79451732 Ry
     estimated scf accuracy    <       0.09416184 Ry

     iteration #  6     ecut=    30.00 Ry     beta= 0.30
     Davidson diagonalization with overlap
     ethr =  1.61E-07,  avg # of iterations =  3.7

     negative rho (up, down):  3.797E-05 0.000E+00

     total cpu time spent up to now is    36985.5 secs

     total energy              =    -447.79426793 Ry
     Harris-Foulkes estimate   =    -447.79433217 Ry
     estimated scf accuracy    <       0.04328214 Ry

     iteration #  7     ecut=    30.00 Ry     beta= 0.30
     Davidson diagonalization with overlap
     ethr =  1.61E-07,  avg # of iterations =  1.8

     negative rho (up, down):  3.385E-05 0.000E+00

     total cpu time spent up to now is    37625.0 secs

     total energy              =    -447.79419792 Ry
     Harris-Foulkes estimate   =    -447.79427422 Ry
     estimated scf accuracy    <       0.02917714 Ry

     iteration #  8     ecut=    30.00 Ry     beta= 0.30
     Davidson diagonalization with overlap
     ethr =  1.61E-07,  avg # of iterations =  3.4

     negative rho (up, down):  3.061E-05 0.000E+00

     total cpu time spent up to now is    38304.8 secs

     total energy              =    -447.79419459 Ry
     Harris-Foulkes estimate   =    -447.79422004 Ry
     estimated scf accuracy    <       0.00835927 Ry

     iteration #  9     ecut=    30.00 Ry     beta= 0.30
     Davidson diagonalization with overlap
     ethr =  1.61E-07,  avg # of iterations =  1.1

     negative rho (up, down):  2.204E-05 0.000E+00

     total cpu time spent up to now is    38929.7 secs

     total energy              =    -447.79415568 Ry
     Harris-Foulkes estimate   =    -447.79419814 Ry
     estimated scf accuracy    <       0.00418623 Ry

     iteration # 10     ecut=    30.00 Ry     beta= 0.30
     Davidson diagonalization with overlap
     ethr =  1.61E-07,  avg # of iterations =  4.0

     negative rho (up, down):  2.187E-05 0.000E+00

     total cpu time spent up to now is    39610.5 secs

     total energy              =    -447.79420055 Ry
     Harris-Foulkes estimate   =    -447.79420049 Ry
     estimated scf accuracy    <       0.00291642 Ry

     iteration # 11     ecut=    30.00 Ry     beta= 0.30
     Davidson diagonalization with overlap
     ethr =  1.61E-07,  avg # of iterations =  1.0

     negative rho (up, down):  2.129E-05 0.000E+00

     total cpu time spent up to now is    40240.5 secs

     total energy              =    -447.79420557 Ry
     Harris-Foulkes estimate   =    -447.79420075 Ry
     estimated scf accuracy    <       0.00294829 Ry

     iteration # 12     ecut=    30.00 Ry     beta= 0.30
     Davidson diagonalization with overlap
     ethr =  1.61E-07,  avg # of iterations =  1.0

     negative rho (up, down):  2.076E-05 0.000E+00

     total cpu time spent up to now is    40845.2 secs

     total energy              =    -447.79420105 Ry
     Harris-Foulkes estimate   =    -447.79420603 Ry
     estimated scf accuracy    <       0.00401507 Ry

     iteration # 13     ecut=    30.00 Ry     beta= 0.30
     Davidson diagonalization with overlap
     ethr =  1.61E-07,  avg # of iterations =  1.0

     negative rho (up, down):  1.806E-05 0.000E+00

     total cpu time spent up to now is    41451.4 secs

     total energy              =    -447.79419609 Ry
     Harris-Foulkes estimate   =    -447.79420145 Ry
     estimated scf accuracy    <       0.00310239 Ry

     iteration # 14     ecut=    30.00 Ry     beta= 0.30
     Davidson diagonalization with overlap
     ethr =  1.61E-07,  avg # of iterations =  1.0

     negative rho (up, down):  1.716E-05 0.000E+00

     total cpu time spent up to now is    42050.0 secs

     total energy              =    -447.79419381 Ry
     Harris-Foulkes estimate   =    -447.79419688 Ry
     estimated scf accuracy    <       0.00211869 Ry

     iteration # 15     ecut=    30.00 Ry     beta= 0.30
     Davidson diagonalization with overlap
     ethr =  1.61E-07,  avg # of iterations =  1.0

     negative rho (up, down):  1.659E-05 0.000E+00

     total cpu time spent up to now is    42668.8 secs

     total energy              =    -447.79418895 Ry
     Harris-Foulkes estimate   =    -447.79419412 Ry
     estimated scf accuracy    <       0.00153006 Ry

     iteration # 16     ecut=    30.00 Ry     beta= 0.30
     Davidson diagonalization with overlap
     ethr =  1.61E-07,  avg # of iterations =  1.1

     negative rho (up, down):  1.689E-05 0.000E+00

     total cpu time spent up to now is    43280.8 secs

     total energy              =    -447.79418848 Ry
     Harris-Foulkes estimate   =    -447.79419013 Ry
     estimated scf accuracy    <       0.00065127 Ry

     iteration # 17     ecut=    30.00 Ry     beta= 0.30
     Davidson diagonalization with overlap
     ethr =  1.61E-07,  avg # of iterations =  1.1

     negative rho (up, down):  1.611E-05 0.000E+00

     total cpu time spent up to now is    43901.3 secs

     total energy              =    -447.79418977 Ry
     Harris-Foulkes estimate   =    -447.79418941 Ry
     estimated scf accuracy    <       0.00025379 Ry

     iteration # 18     ecut=    30.00 Ry     beta= 0.30
     Davidson diagonalization with overlap
     ethr =  1.61E-07,  avg # of iterations =  1.1

     negative rho (up, down):  1.540E-05 0.000E+00

     total cpu time spent up to now is    44524.0 secs

     total energy              =    -447.79418590 Ry
     Harris-Foulkes estimate   =    -447.79419017 Ry
     estimated scf accuracy    <       0.00026133 Ry

     iteration # 19     ecut=    30.00 Ry     beta= 0.30
     Davidson diagonalization with overlap
     ethr =  1.61E-07,  avg # of iterations =  3.0

     negative rho (up, down):  1.549E-05 0.000E+00

     total cpu time spent up to now is    45182.5 secs

     total energy              =    -447.79419116 Ry
     Harris-Foulkes estimate   =    -447.79419647 Ry
     estimated scf accuracy    <       0.00128847 Ry

     iteration # 20     ecut=    30.00 Ry     beta= 0.30
     Davidson diagonalization with overlap
     ethr =  1.61E-07,  avg # of iterations =  1.0

     negative rho (up, down):  1.524E-05 0.000E+00

     total cpu time spent up to now is    45798.3 secs

     total energy              =    -447.79419041 Ry
     Harris-Foulkes estimate   =    -447.79419223 Ry
     estimated scf accuracy    <       0.00047505 Ry

     iteration # 21     ecut=    30.00 Ry     beta= 0.30
     Davidson diagonalization with overlap
     ethr =  1.61E-07,  avg # of iterations =  1.0

     negative rho (up, down):  1.475E-05 0.000E+00

     total cpu time spent up to now is    46415.8 secs

     total energy              =    -447.79419093 Ry
     Harris-Foulkes estimate   =    -447.79419079 Ry
     estimated scf accuracy    <       0.00018843 Ry

     iteration # 22     ecut=    30.00 Ry     beta= 0.30
     Davidson diagonalization with overlap
     ethr =  1.61E-07,  avg # of iterations =  1.0

     negative rho (up, down):  1.610E-05 0.000E+00

     total cpu time spent up to now is    47028.9 secs

     total energy              =    -447.79419088 Ry
     Harris-Foulkes estimate   =    -447.79419099 Ry
     estimated scf accuracy    <       0.00018980 Ry

     iteration # 23     ecut=    30.00 Ry     beta= 0.30
     Davidson diagonalization with overlap
     ethr =  1.61E-07,  avg # of iterations =  1.0

     negative rho (up, down):  1.486E-05 0.000E+00

     total cpu time spent up to now is    47643.1 secs

     total energy              =    -447.79419096 Ry
     Harris-Foulkes estimate   =    -447.79419096 Ry
     estimated scf accuracy    <       0.00014863 Ry

     iteration # 24     ecut=    30.00 Ry     beta= 0.30
     Davidson diagonalization with overlap
     ethr =  1.36E-07,  avg # of iterations =  1.0

     negative rho (up, down):  1.863E-05 0.000E+00

     total cpu time spent up to now is    48253.2 secs

     total energy              =    -447.79419222 Ry
     Harris-Foulkes estimate   =    -447.79419101 Ry
     estimated scf accuracy    <       0.00016738 Ry

     iteration # 25     ecut=    30.00 Ry     beta= 0.30
     Davidson diagonalization with overlap
     ethr =  1.36E-07,  avg # of iterations =  1.0

     negative rho (up, down):  1.662E-05 0.000E+00

     total cpu time spent up to now is    48869.0 secs

     total energy              =    -447.79419209 Ry
     Harris-Foulkes estimate   =    -447.79419258 Ry
     estimated scf accuracy    <       0.00037523 Ry

     iteration # 26     ecut=    30.00 Ry     beta= 0.30
     Davidson diagonalization with overlap
     ethr =  1.36E-07,  avg # of iterations =  1.0

     negative rho (up, down):  1.738E-05 0.000E+00

     total cpu time spent up to now is    49473.7 secs

     total energy              =    -447.79419195 Ry
     Harris-Foulkes estimate   =    -447.79419216 Ry
     estimated scf accuracy    <       0.00031535 Ry

     iteration # 27     ecut=    30.00 Ry     beta= 0.30
     Davidson diagonalization with overlap
     ethr =  1.36E-07,  avg # of iterations =  1.0

     negative rho (up, down):  3.460E-05 0.000E+00

     total cpu time spent up to now is    50083.5 secs

     total energy              =    -447.79418874 Ry
     Harris-Foulkes estimate   =    -447.79419211 Ry
     estimated scf accuracy    <       0.00035177 Ry

     iteration # 28     ecut=    30.00 Ry     beta= 0.30
     Davidson diagonalization with overlap
     ethr =  1.36E-07,  avg # of iterations =  2.4

     negative rho (up, down):  2.228E-05 0.000E+00

     total cpu time spent up to now is    50710.7 secs

     total energy              =    -447.79419185 Ry
     Harris-Foulkes estimate   =    -447.79419244 Ry
     estimated scf accuracy    <       0.00012068 Ry

     iteration # 29     ecut=    30.00 Ry     beta= 0.30
     Davidson diagonalization with overlap
     ethr =  1.11E-07,  avg # of iterations =  1.1

     negative rho (up, down):  2.357E-05 0.000E+00

     total cpu time spent up to now is    51310.9 secs

     total energy              =    -447.79419214 Ry
     Harris-Foulkes estimate   =    -447.79419216 Ry
     estimated scf accuracy    <       0.00006674 Ry

     iteration # 30     ecut=    30.00 Ry     beta= 0.30
     Davidson diagonalization with overlap
     ethr =  6.12E-08,  avg # of iterations =  1.1

     negative rho (up, down):  2.058E-05 0.000E+00

     total cpu time spent up to now is    51917.0 secs

     total energy              =    -447.79419158 Ry
     Harris-Foulkes estimate   =    -447.79419216 Ry
     estimated scf accuracy    <       0.00005721 Ry

     iteration # 31     ecut=    30.00 Ry     beta= 0.30
     Davidson diagonalization with overlap
     ethr =  5.25E-08,  avg # of iterations =  1.1

     negative rho (up, down):  9.255E-05 0.000E+00

     total cpu time spent up to now is    52501.2 secs

     End of self-consistent calculation

     Number of k-points >= 100: set verbosity='high' to print the bands.

     the Fermi energy is    -1.0018 ev

!    total energy              =    -447.79419154 Ry
     Harris-Foulkes estimate   =    -447.79419201 Ry
     estimated scf accuracy    <       0.00000066 Ry

     The total energy is the sum of the following terms:

     one-electron contribution =   -9769.83186197 Ry
     hartree contribution      =    4902.79847671 Ry
     xc contribution           =    -356.02394740 Ry
     ewald contribution        =    4775.26121521 Ry
     smearing contrib. (-TS)   =       0.00192592 Ry

     convergence has been achieved in  31 iterations

     negative rho (up, down):  9.255E-05 0.000E+00

     Forces acting on atoms (cartesian axes, Ry/au):

     atom    1 type  1   force =     0.00002024   -0.00001169    0.00021474
     atom    2 type  1   force =    -0.00007036   -0.00001624    0.00021680
     atom    3 type  1   force =    -0.00002112    0.00006905    0.00021680
     atom    4 type  1   force =     0.00006956   -0.00004016    0.00021831
     atom    5 type  1   force =     0.00001744    0.00004397    0.00416052
     atom    6 type  1   force =     0.00002833   -0.00001636    0.00414916
     atom    7 type  1   force =    -0.00001838    0.00001061    0.00416777
     atom    8 type  1   force =    -0.00002936   -0.00003708    0.00416052
     atom    9 type  1   force =    -0.00000515    0.00000297    0.00004930
     atom   10 type  1   force =     0.00005063    0.00002303    0.00004728
     atom   11 type  1   force =     0.00000537   -0.00005536    0.00004728
     atom   12 type  1   force =    -0.00005024    0.00002901    0.00004425
     atom   13 type  1   force =    -0.00000351    0.00000203   -0.00001439
     atom   14 type  1   force =     0.00000163   -0.00000302   -0.00000589
     atom   15 type  1   force =     0.00000344    0.00000010   -0.00000589
     atom   16 type  1   force =    -0.00000188    0.00000109    0.00000510
     atom   17 type  1   force =    -0.00000624    0.00000545    0.00002789
     atom   18 type  1   force =     0.00000860   -0.00000497    0.00003384
     atom   19 type  1   force =     0.00000679   -0.00000392    0.00002245
     atom   20 type  1   force =    -0.00000784    0.00000268    0.00002789
     atom   21 type  1   force =     0.00003237   -0.00001869   -0.00000450
     atom   22 type  1   force =     0.00005842    0.00007096   -0.00002235
     atom   23 type  1   force =    -0.00003225   -0.00008607   -0.00002235
     atom   24 type  1   force =    -0.00005859    0.00003383   -0.00000425
     atom   25 type  1   force =     0.00017496   -0.00010102   -0.00017163
     atom   26 type  1   force =     0.00010732    0.00034796   -0.00023185
     atom   27 type  1   force =    -0.00024768   -0.00026692   -0.00023185
     atom   28 type  1   force =    -0.00010554    0.00006093   -0.00021668
     atom   29 type  1   force =     0.00009325   -0.00001346   -0.00008052
     atom   30 type  1   force =    -0.00005816    0.00003358   -0.00005224
     atom   31 type  1   force =    -0.00009232    0.00005330   -0.00009475
     atom   32 type  1   force =     0.00005828   -0.00007403   -0.00008052
     atom   33 type  1   force =    -0.01496317    0.00863899   -0.00338570
     atom   34 type  1   force =    -0.04626443   -0.08009039   -0.00429189
     atom   35 type  1   force =     0.04622810    0.08011136   -0.00429189
     atom   36 type  1   force =     0.01500053   -0.00866056   -0.00340699
     atom   37 type  2   force =     0.00007093   -0.00004095   -0.00119381

     Total force =     0.133565     Total SCF correction =     0.000865


     Computing stress (Cartesian axis) and pressure


     negative rho (up, down):  9.255E-05 0.000E+00
          total   stress  (Ry/bohr**3)                   (kbar)     P=  -23.63
  -0.00020591   0.00001338   0.00000005        -30.29      1.97      0.01
   0.00001338  -0.00019047  -0.00000003          1.97    -28.02     -0.00
   0.00000005  -0.00000003  -0.00008545          0.01     -0.00    -12.57


     number of scf cycles    =   2
     number of bfgs steps    =   1

     energy   old            =    -447.7560191383 Ry
     energy   new            =    -447.7941915372 Ry

     CASE: energy  _new < energy  _old

     new trust radius        =       0.1676341060 bohr
     new conv_thr            =       0.0000288401 Ry


ATOMIC_POSITIONS (crystal)
Al       0.333337392   0.166662593   0.055559369
Al       0.333311521   0.666661430   0.055559383
Al       0.833338570   0.166688464   0.055559383
Al       0.833346349   0.666653651   0.055559387
Al       0.000006316   0.000008206   0.000073885
Al       0.000003267   0.499996733   0.000073716
Al       0.499998372   0.000001628   0.000074024
Al       0.499991794   0.499993684   0.000073885
Al       0.166665657   0.333334328   0.111112007
Al       0.166683042   0.833340451   0.111111957
Al       0.666659549   0.333316943   0.111111957
Al       0.666657850   0.833342150   0.111111904
Al       0.333333216   0.166666769   0.222222030
Al       0.333333614   0.666666191   0.222222108
Al       0.833333809   0.166666371   0.222222108
Al       0.833333278   0.666666722   0.222222202
Al      -0.000007826  -0.000005034   0.166667113
Al      -0.000000660   0.500000660   0.166667214
Al       0.500003613  -0.000003613   0.166666959
Al       0.500005034   0.500007826   0.166667113
Al       0.166669293   0.333330692   0.277777703
Al       0.166683819   0.833346332   0.277777404
Al       0.666653668   0.333316166   0.277777404
Al       0.666659221   0.833340779   0.277777729
Al       0.333349480   0.166650505   0.388886474
Al       0.333381152   0.666732925   0.388884833
Al       0.833267075   0.166618833   0.388884833
Al       0.833323797   0.666676203   0.388884565
Al       0.000029295   0.000000513   0.333331861
Al      -0.000009429   0.500009429   0.333332032
Al       0.499980779   0.000019221   0.333331991
Al       0.499999487   0.499970705   0.333331861
Al       0.163747127   0.336252858   0.444384864
Al       0.136920129   0.803593399   0.444370713
Al       0.696406601   0.363079856   0.444370713
Al       0.669592683   0.830407317   0.444384392
H        0.416676975   0.083321355   0.444417361



     Writing output data file Al_H23_3_3.save/
     NEW-OLD atomic charge density approx. for the potential

     negative rho (up, down):  1.007E-04 0.000E+00

     total cpu time spent up to now is    53052.2 secs

     Self-consistent Calculation

     iteration #  1     ecut=    30.00 Ry     beta= 0.30
     Davidson diagonalization with overlap
     c_bands:  1 eigenvalues not converged
     c_bands:  1 eigenvalues not converged
     ethr =  1.00E-06,  avg # of iterations =  8.7

     negative rho (up, down):  8.214E-05 0.000E+00

     total cpu time spent up to now is    54417.0 secs

     total energy              =    -447.81687804 Ry
     Harris-Foulkes estimate   =    -447.81820301 Ry
     estimated scf accuracy    <       0.02279288 Ry

     iteration #  2     ecut=    30.00 Ry     beta= 0.30
     Davidson diagonalization with overlap
     ethr =  2.09E-05,  avg # of iterations =  1.0

     negative rho (up, down):  6.436E-05 0.000E+00

     total cpu time spent up to now is    55028.3 secs

     total energy              =    -447.81491441 Ry
     Harris-Foulkes estimate   =    -447.81699228 Ry
     estimated scf accuracy    <       0.01122040 Ry

     iteration #  3     ecut=    30.00 Ry     beta= 0.30
     Davidson diagonalization with overlap
     ethr =  1.03E-05,  avg # of iterations =  2.4

     negative rho (up, down):  5.153E-05 0.000E+00

     total cpu time spent up to now is    55682.0 secs

     total energy              =    -447.81571081 Ry
     Harris-Foulkes estimate   =    -447.81570616 Ry
     estimated scf accuracy    <       0.00013360 Ry

     iteration #  4     ecut=    30.00 Ry     beta= 0.30
     Davidson diagonalization with overlap
     c_bands:  1 eigenvalues not converged
     ethr =  1.23E-07,  avg # of iterations =  6.6

     negative rho (up, down):  4.973E-05 0.000E+00

     total cpu time spent up to now is    56488.8 secs

     total energy              =    -447.81574618 Ry
     Harris-Foulkes estimate   =    -447.81575108 Ry
     estimated scf accuracy    <       0.00240583 Ry

     iteration #  5     ecut=    30.00 Ry     beta= 0.30
     Davidson diagonalization with overlap
     ethr =  1.23E-07,  avg # of iterations =  1.6

     negative rho (up, down):  3.831E-05 0.000E+00

     total cpu time spent up to now is    57113.5 secs

     total energy              =    -447.81572467 Ry
     Harris-Foulkes estimate   =    -447.81574838 Ry
     estimated scf accuracy    <       0.00336142 Ry

     iteration #  6     ecut=    30.00 Ry     beta= 0.30
     Davidson diagonalization with overlap
     ethr =  1.23E-07,  avg # of iterations =  2.1

     negative rho (up, down):  3.666E-05 0.000E+00

     total cpu time spent up to now is    57753.6 secs

     total energy              =    -447.81573209 Ry
     Harris-Foulkes estimate   =    -447.81573288 Ry
     estimated scf accuracy    <       0.00049153 Ry

     iteration #  7     ecut=    30.00 Ry     beta= 0.30
     Davidson diagonalization with overlap
     ethr =  1.23E-07,  avg # of iterations =  1.0

     negative rho (up, down):  3.380E-05 0.000E+00

     total cpu time spent up to now is    58366.7 secs

     total energy              =    -447.81572945 Ry
     Harris-Foulkes estimate   =    -447.81573240 Ry
     estimated scf accuracy    <       0.00038991 Ry

     iteration #  8     ecut=    30.00 Ry     beta= 0.30
     Davidson diagonalization with overlap
     ethr =  1.23E-07,  avg # of iterations =  2.7

     negative rho (up, down):  3.358E-05 0.000E+00

     total cpu time spent up to now is    59021.7 secs

     total energy              =    -447.81573410 Ry
     Harris-Foulkes estimate   =    -447.81573414 Ry
     estimated scf accuracy    <       0.00007842 Ry

     iteration #  9     ecut=    30.00 Ry     beta= 0.30
     Davidson diagonalization with overlap
     ethr =  7.19E-08,  avg # of iterations =  1.6

     negative rho (up, down):  3.346E-05 0.000E+00

     total cpu time spent up to now is    59636.3 secs

     total energy              =    -447.81573472 Ry
     Harris-Foulkes estimate   =    -447.81573472 Ry
     estimated scf accuracy    <       0.00012744 Ry

     iteration # 10     ecut=    30.00 Ry     beta= 0.30
     Davidson diagonalization with overlap
     ethr =  7.19E-08,  avg # of iterations =  1.0

     negative rho (up, down):  3.310E-05 0.000E+00

     total cpu time spent up to now is    60238.0 secs

     total energy              =    -447.81573459 Ry
     Harris-Foulkes estimate   =    -447.81573477 Ry
     estimated scf accuracy    <       0.00013049 Ry

     iteration # 11     ecut=    30.00 Ry     beta= 0.30
     Davidson diagonalization with overlap
     ethr =  7.19E-08,  avg # of iterations =  1.0

     negative rho (up, down):  3.239E-05 0.000E+00

     total cpu time spent up to now is    60858.1 secs

     total energy              =    -447.81573390 Ry
     Harris-Foulkes estimate   =    -447.81573467 Ry
     estimated scf accuracy    <       0.00010507 Ry

     iteration # 12     ecut=    30.00 Ry     beta= 0.30
     Davidson diagonalization with overlap
     ethr =  7.19E-08,  avg # of iterations =  1.1

     negative rho (up, down):  8.509E-05 0.000E+00

     total cpu time spent up to now is    61441.6 secs

     End of self-consistent calculation

     Number of k-points >= 100: set verbosity='high' to print the bands.

     the Fermi energy is    -0.9941 ev

!    total energy              =    -447.81572633 Ry
     Harris-Foulkes estimate   =    -447.81573441 Ry
     estimated scf accuracy    <       0.00000839 Ry

     The total energy is the sum of the following terms:

     one-electron contribution =   -9772.00219811 Ry
     hartree contribution      =    4903.94202859 Ry
     xc contribution           =    -356.01222105 Ry
     ewald contribution        =    4776.25476749 Ry
     smearing contrib. (-TS)   =       0.00189676 Ry

     convergence has been achieved in  12 iterations

     negative rho (up, down):  8.509E-05 0.000E+00

     Forces acting on atoms (cartesian axes, Ry/au):

     atom    1 type  1   force =     0.00003341   -0.00001929    0.00018983
     atom    2 type  1   force =     0.00000665    0.00004220    0.00019258
     atom    3 type  1   force =    -0.00003322   -0.00002685    0.00019258
     atom    4 type  1   force =    -0.00000671    0.00000387    0.00019403
     atom    5 type  1   force =    -0.00000767   -0.00000974    0.00417856
     atom    6 type  1   force =    -0.00000545    0.00000315    0.00416153
     atom    7 type  1   force =     0.00000669   -0.00000386    0.00419299
     atom    8 type  1   force =     0.00000460    0.00001151    0.00417856
     atom    9 type  1   force =    -0.00002298    0.00001327    0.00004619
     atom   10 type  1   force =     0.00001556   -0.00001817    0.00004680
     atom   11 type  1   force =     0.00002352   -0.00000439    0.00004680
     atom   12 type  1   force =    -0.00001484    0.00000857    0.00004671
     atom   13 type  1   force =     0.00000003   -0.00000002   -0.00003174
     atom   14 type  1   force =    -0.00000258   -0.00000090   -0.00000690
     atom   15 type  1   force =    -0.00000051    0.00000268   -0.00000690
     atom   16 type  1   force =     0.00000184   -0.00000106    0.00001864
     atom   17 type  1   force =    -0.00000702    0.00000702    0.00002724
     atom   18 type  1   force =     0.00001012   -0.00000584    0.00003456
     atom   19 type  1   force =     0.00000752   -0.00000434    0.00001922
     atom   20 type  1   force =    -0.00000959    0.00000257    0.00002724
     atom   21 type  1   force =     0.00002681   -0.00001548    0.00000143
     atom   22 type  1   force =     0.00003888    0.00005398   -0.00002614
     atom   23 type  1   force =    -0.00002731   -0.00006066   -0.00002614
     atom   24 type  1   force =    -0.00003910    0.00002257    0.00000068
     atom   25 type  1   force =     0.00025790   -0.00014890   -0.00042637
     atom   26 type  1   force =     0.00038999    0.00060397   -0.00032075
     atom   27 type  1   force =    -0.00032806   -0.00063973   -0.00032075
     atom   28 type  1   force =    -0.00039064    0.00022554   -0.00029434
     atom   29 type  1   force =    -0.00005452   -0.00023708   -0.00009694
     atom   30 type  1   force =    -0.00017694    0.00010215    0.00000705
     atom   31 type  1   force =     0.00005452   -0.00003148   -0.00014842
     atom   32 type  1   force =     0.00017806    0.00016576   -0.00009694
     atom   33 type  1   force =    -0.00822064    0.00474619   -0.00360481
     atom   34 type  1   force =    -0.01444566   -0.02498714   -0.00430580
     atom   35 type  1   force =     0.01441667    0.02500388   -0.00430580
     atom   36 type  1   force =     0.00824358   -0.00475944   -0.00361869
     atom   37 type  2   force =     0.00007707   -0.00004450   -0.00016577

     Total force =     0.044520     Total SCF correction =     0.003419


     Computing stress (Cartesian axis) and pressure


     negative rho (up, down):  8.509E-05 0.000E+00
          total   stress  (Ry/bohr**3)                   (kbar)     P=  -23.86
  -0.00020634   0.00000979   0.00000004        -30.35      1.44      0.01
   0.00000979  -0.00019503  -0.00000002          1.44    -28.69     -0.00
   0.00000004  -0.00000002  -0.00008519          0.01     -0.00    -12.53


     number of scf cycles    =   3
     number of bfgs steps    =   2

     energy   old            =    -447.7941915372 Ry
     energy   new            =    -447.8157263299 Ry

     CASE: energy  _new < energy  _old

     new trust radius        =       0.0803828233 bohr
     new conv_thr            =       0.0000090014 Ry


ATOMIC_POSITIONS (crystal)
Al       0.333340964   0.166659021   0.055561690
Al       0.333312837   0.666667450   0.055561734
Al       0.833332550   0.166687148   0.055561734
Al       0.833347453   0.666652547   0.055561756
Al       0.000006035   0.000008499   0.000123537
Al       0.000003453   0.499996547   0.000123181
Al       0.499998544   0.000001456   0.000123831
Al       0.499991501   0.499993965   0.000123537
Al       0.166663419   0.333336566   0.111112564
Al       0.166686105   0.833338544   0.111112514
Al       0.666661456   0.333313880   0.111112514
Al       0.666655248   0.833344752   0.111112453
Al       0.333333134   0.166666851   0.222221697
Al       0.333333185   0.666665923   0.222222029
Al       0.833334077   0.166666800   0.222222029
Al       0.833333401   0.666666599   0.222222389
Al      -0.000008399  -0.000003732   0.166667439
Al       0.000000467   0.499999533   0.166667623
Al       0.500004489  -0.000004489   0.166667195
Al       0.500003732   0.500008399   0.166667439
Al       0.166672535   0.333327450   0.277777705
Al       0.166697088   0.833357892   0.277777103
Al       0.666642108   0.333302897   0.277777103
Al       0.666654204   0.833345796   0.277777724
Al       0.333377388   0.166622597   0.388882049
Al       0.333494122   0.666843627   0.388881242
Al       0.833156373   0.166505863   0.388881242
Al       0.833285366   0.666714634   0.388881257
Al       0.000006129  -0.000037757   0.333330749
Al      -0.000027114   0.500027114   0.333331964
Al       0.499983489   0.000016511   0.333330364
Al       0.500037757   0.499993871   0.333330749
Al       0.162620659   0.337379326   0.444342545
Al       0.129480174   0.796157004   0.444319554
Al       0.703842996   0.370519811   0.444319554
Al       0.670722183   0.829277817   0.444341888
H        0.416685802   0.083312528   0.444412760



     Writing output data file Al_H23_3_3.save/
     NEW-OLD atomic charge density approx. for the potential

     negative rho (up, down):  8.821E-05 0.000E+00

     total cpu time spent up to now is    61992.2 secs

     Self-consistent Calculation

     iteration #  1     ecut=    30.00 Ry     beta= 0.30
     Davidson diagonalization with overlap
     c_bands:  1 eigenvalues not converged
     c_bands:  1 eigenvalues not converged
     c_bands:  2 eigenvalues not converged
     c_bands:  5 eigenvalues not converged
     c_bands:  1 eigenvalues not converged
     c_bands:  2 eigenvalues not converged
     c_bands:  1 eigenvalues not converged
     c_bands:  1 eigenvalues not converged
     c_bands:  1 eigenvalues not converged
     c_bands:  2 eigenvalues not converged
     c_bands:  1 eigenvalues not converged
     c_bands:  1 eigenvalues not converged
     c_bands:  2 eigenvalues not converged
     c_bands:  1 eigenvalues not converged
     c_bands:  1 eigenvalues not converged
     c_bands:  1 eigenvalues not converged
     c_bands:  1 eigenvalues not converged
     c_bands:  1 eigenvalues not converged
     c_bands:  1 eigenvalues not converged
     c_bands:  1 eigenvalues not converged
     c_bands:  1 eigenvalues not converged
     c_bands:  2 eigenvalues not converged
     ethr =  1.00E-06,  avg # of iterations = 11.5

     negative rho (up, down):  1.232E-04 0.000E+00

     total cpu time spent up to now is    63326.3 secs

     total energy              =    -447.81871870 Ry
     Harris-Foulkes estimate   =    -447.82122566 Ry
     estimated scf accuracy    <       1.02777625 Ry

     iteration #  2     ecut=    30.00 Ry     beta= 0.30
     Davidson diagonalization with overlap
     ethr =  9.43E-04,  avg # of iterations =  1.0

     negative rho (up, down):  3.658E-04 0.000E+00

     total cpu time spent up to now is    63935.2 secs

     total energy              =    -447.81550991 Ry
     Harris-Foulkes estimate   =    -447.81909643 Ry
     estimated scf accuracy    <       0.47269849 Ry

     iteration #  3     ecut=    30.00 Ry     beta= 0.30
     Davidson diagonalization with overlap
     ethr =  4.34E-04,  avg # of iterations =  1.0

     negative rho (up, down):  4.500E-04 0.000E+00

     total cpu time spent up to now is    64546.9 secs

     total energy              =    -447.81720550 Ry
     Harris-Foulkes estimate   =    -447.81720944 Ry
     estimated scf accuracy    <       0.00016424 Ry

     iteration #  4     ecut=    30.00 Ry     beta= 0.30
     Davidson diagonalization with overlap
     c_bands:  2 eigenvalues not converged
     c_bands:  1 eigenvalues not converged
     c_bands:  1 eigenvalues not converged
     c_bands:  1 eigenvalues not converged
     c_bands:  1 eigenvalues not converged
     c_bands:  2 eigenvalues not converged
     c_bands:  2 eigenvalues not converged
     c_bands:  2 eigenvalues not converged
     c_bands:  2 eigenvalues not converged
     c_bands:  2 eigenvalues not converged
     c_bands:  1 eigenvalues not converged
     c_bands:  1 eigenvalues not converged
     c_bands:  1 eigenvalues not converged
     c_bands:  2 eigenvalues not converged
     c_bands:  2 eigenvalues not converged
     c_bands:  1 eigenvalues not converged
     c_bands:  1 eigenvalues not converged
     c_bands:  1 eigenvalues not converged
     c_bands:  2 eigenvalues not converged
     ethr =  1.51E-07,  avg # of iterations = 11.9

     negative rho (up, down):  4.496E-04 0.000E+00

     total cpu time spent up to now is    65545.4 secs

     total energy              =    -447.81880923 Ry
     Harris-Foulkes estimate   =    -447.81884305 Ry
     estimated scf accuracy    <       0.24837068 Ry

     iteration #  5     ecut=    30.00 Ry     beta= 0.30
     Davidson diagonalization with overlap
     ethr =  1.51E-07,  avg # of iterations =  1.7

     negative rho (up, down):  4.484E-04 0.000E+00

     total cpu time spent up to now is    66158.0 secs

     total energy              =    -447.81882246 Ry
     Harris-Foulkes estimate   =    -447.81881006 Ry
     estimated scf accuracy    <       0.23881164 Ry

     iteration #  6     ecut=    30.00 Ry     beta= 0.30
     Davidson diagonalization with overlap
     ethr =  1.51E-07,  avg # of iterations =  1.0

     negative rho (up, down):  4.873E-04 0.000E+00

     total cpu time spent up to now is    66773.8 secs

     total energy              =    -447.81824606 Ry
     Harris-Foulkes estimate   =    -447.81882262 Ry
     estimated scf accuracy    <       0.24194880 Ry

     iteration #  7     ecut=    30.00 Ry     beta= 0.30
     Davidson diagonalization with overlap
     c_bands:  1 eigenvalues not converged
     c_bands:  1 eigenvalues not converged
     c_bands:  1 eigenvalues not converged
     c_bands:  1 eigenvalues not converged
     c_bands:  1 eigenvalues not converged
     c_bands:  1 eigenvalues not converged
     c_bands:  1 eigenvalues not converged
     c_bands:  1 eigenvalues not converged
     ethr =  1.51E-07,  avg # of iterations =  4.5

     negative rho (up, down):  4.837E-04 0.000E+00

     total cpu time spent up to now is    67458.9 secs

     total energy              =    -447.81836873 Ry
     Harris-Foulkes estimate   =    -447.81838599 Ry
     estimated scf accuracy    <       0.06214816 Ry

     iteration #  8     ecut=    30.00 Ry     beta= 0.30
     Davidson diagonalization with overlap
     ethr =  1.51E-07,  avg # of iterations =  1.1

     negative rho (up, down):  4.188E-04 0.000E+00

     total cpu time spent up to now is    68061.1 secs

     total energy              =    -447.81824222 Ry
     Harris-Foulkes estimate   =    -447.81836937 Ry
     estimated scf accuracy    <       0.05751150 Ry

     iteration #  9     ecut=    30.00 Ry     beta= 0.30
     Davidson diagonalization with overlap
     c_bands:  1 eigenvalues not converged
     ethr =  1.51E-07,  avg # of iterations =  3.7

     negative rho (up, down):  4.122E-04 0.000E+00

     total cpu time spent up to now is    68714.0 secs

     total energy              =    -447.81822008 Ry
     Harris-Foulkes estimate   =    -447.81827391 Ry
     estimated scf accuracy    <       0.01579196 Ry

     iteration # 10     ecut=    30.00 Ry     beta= 0.30
     Davidson diagonalization with overlap
     c_bands:  1 eigenvalues not converged
     ethr =  1.51E-07,  avg # of iterations =  3.7

     negative rho (up, down):  4.042E-04 0.000E+00

     total cpu time spent up to now is    69358.4 secs

     total energy              =    -447.81823815 Ry
     Harris-Foulkes estimate   =    -447.81823916 Ry
     estimated scf accuracy    <       0.00131363 Ry

     iteration # 11     ecut=    30.00 Ry     beta= 0.30
     Davidson diagonalization with overlap
     ethr =  1.51E-07,  avg # of iterations =  1.1

     negative rho (up, down):  3.459E-04 0.000E+00

     total cpu time spent up to now is    69959.6 secs

     total energy              =    -447.81823253 Ry
     Harris-Foulkes estimate   =    -447.81823836 Ry
     estimated scf accuracy    <       0.00104989 Ry

     iteration # 12     ecut=    30.00 Ry     beta= 0.30
     Davidson diagonalization with overlap
     ethr =  1.51E-07,  avg # of iterations =  1.4

     negative rho (up, down):  3.356E-04 0.000E+00

     total cpu time spent up to now is    70567.3 secs

     total energy              =    -447.81823462 Ry
     Harris-Foulkes estimate   =    -447.81823459 Ry
     estimated scf accuracy    <       0.00011640 Ry

     iteration # 13     ecut=    30.00 Ry     beta= 0.30
     Davidson diagonalization with overlap
     ethr =  1.07E-07,  avg # of iterations =  1.4

     negative rho (up, down):  3.230E-04 0.000E+00

     total cpu time spent up to now is    71181.5 secs

     total energy              =    -447.81823442 Ry
     Harris-Foulkes estimate   =    -447.81823502 Ry
     estimated scf accuracy    <       0.00009479 Ry

     iteration # 14     ecut=    30.00 Ry     beta= 0.30
     Davidson diagonalization with overlap
     ethr =  8.70E-08,  avg # of iterations =  1.4

     negative rho (up, down):  8.206E-05 0.000E+00

     total cpu time spent up to now is    71770.0 secs

     End of self-consistent calculation

     Number of k-points >= 100: set verbosity='high' to print the bands.

     the Fermi energy is    -0.9869 ev

!    total energy              =    -447.81823167 Ry
     Harris-Foulkes estimate   =    -447.81823492 Ry
     estimated scf accuracy    <       0.00000320 Ry

     The total energy is the sum of the following terms:

     one-electron contribution =   -9774.36334358 Ry
     hartree contribution      =    4905.15297337 Ry
     xc contribution           =    -356.01407114 Ry
     ewald contribution        =    4777.40431599 Ry
     smearing contrib. (-TS)   =       0.00189369 Ry

     convergence has been achieved in  14 iterations

     negative rho (up, down):  8.206E-05 0.000E+00

     Forces acting on atoms (cartesian axes, Ry/au):

     atom    1 type  1   force =     0.00004078   -0.00002354    0.00016089
     atom    2 type  1   force =     0.00001723    0.00005709    0.00017011
     atom    3 type  1   force =    -0.00004082   -0.00004347    0.00017011
     atom    4 type  1   force =    -0.00001748    0.00001009    0.00017465
     atom    5 type  1   force =     0.00000564    0.00001447    0.00420863
     atom    6 type  1   force =     0.00000900   -0.00000519    0.00417886
     atom    7 type  1   force =    -0.00000645    0.00000372    0.00424059
     atom    8 type  1   force =    -0.00000971   -0.00001213    0.00420863
     atom    9 type  1   force =    -0.00000316    0.00000182    0.00004256
     atom   10 type  1   force =     0.00003110    0.00001362    0.00004408
     atom   11 type  1   force =     0.00000375   -0.00003375    0.00004408
     atom   12 type  1   force =    -0.00003042    0.00001756    0.00004418
     atom   13 type  1   force =    -0.00003256    0.00001880   -0.00003999
     atom   14 type  1   force =     0.00001804   -0.00002654   -0.00000861
     atom   15 type  1   force =     0.00003200   -0.00000235   -0.00000861
     atom   16 type  1   force =    -0.00001868    0.00001079    0.00002688
     atom   17 type  1   force =    -0.00000044    0.00002141    0.00002889
     atom   18 type  1   force =     0.00001935   -0.00001117    0.00004542
     atom   19 type  1   force =     0.00000101   -0.00000059    0.00000887
     atom   20 type  1   force =    -0.00001876   -0.00001032    0.00002889
     atom   21 type  1   force =     0.00006811   -0.00003932    0.00000442
     atom   22 type  1   force =     0.00004762    0.00010633   -0.00003131
     atom   23 type  1   force =    -0.00006827   -0.00009441   -0.00003131
     atom   24 type  1   force =    -0.00004787    0.00002763    0.00000541
     atom   25 type  1   force =     0.00021196   -0.00012238   -0.00056304
     atom   26 type  1   force =     0.00053256    0.00062951   -0.00037441
     atom   27 type  1   force =    -0.00027889   -0.00077596   -0.00037441
     atom   28 type  1   force =    -0.00053248    0.00030743   -0.00040137
     atom   29 type  1   force =    -0.00008595   -0.00023207   -0.00010765
     atom   30 type  1   force =    -0.00015772    0.00009106    0.00003366
     atom   31 type  1   force =     0.00008649   -0.00004994   -0.00016812
     atom   32 type  1   force =     0.00015800    0.00019047   -0.00010765
     atom   33 type  1   force =    -0.00442358    0.00255395   -0.00379137
     atom   34 type  1   force =     0.00266700    0.00464418   -0.00419822
     atom   35 type  1   force =    -0.00268848   -0.00463178   -0.00419822
     atom   36 type  1   force =     0.00443459   -0.00256031   -0.00378852
     atom   37 type  2   force =     0.00007747   -0.00004473    0.00032298

     Total force =     0.015735     Total SCF correction =     0.001961
     SCF correction compared to forces is large: reduce conv_thr to get better values


     Computing stress (Cartesian axis) and pressure


     negative rho (up, down):  8.206E-05 0.000E+00
          total   stress  (Ry/bohr**3)                   (kbar)     P=  -23.79
  -0.00020543   0.00000920   0.00000004        -30.22      1.35      0.01
   0.00000920  -0.00019480  -0.00000002          1.35    -28.66     -0.00
   0.00000004  -0.00000002  -0.00008503          0.01     -0.00    -12.51


     number of scf cycles    =   4
     number of bfgs steps    =   3

     energy   old            =    -447.8157263299 Ry
     energy   new            =    -447.8182316707 Ry

     CASE: energy  _new < energy  _old

     new trust radius        =       0.0073173860 bohr
     new conv_thr            =       0.0000016719 Ry


ATOMIC_POSITIONS (crystal)
Al       0.333343313   0.166656672   0.055562622
Al       0.333317339   0.666673226   0.055562721
Al       0.833326774   0.166682646   0.055562721
Al       0.833346364   0.666653636   0.055562769
Al       0.000007142   0.000009828   0.000148052
Al       0.000003930   0.499996070   0.000147521
Al       0.499998203   0.000001797   0.000148534
Al       0.499990172   0.499992858   0.000148052
Al       0.166663233   0.333336752   0.111112811
Al       0.166689373   0.833339846   0.111112770
Al       0.666660154   0.333310612   0.111112770
Al       0.666653543   0.833346457   0.111112710
Al       0.333331259   0.166668726   0.222221462
Al       0.333333418   0.666663276   0.222221979
Al       0.833336724   0.166666567   0.222221979
Al       0.833332325   0.666667675   0.222222548
Al      -0.000007396  -0.000001627   0.166667607
Al       0.000001569   0.499998431   0.166667888
Al       0.500004555  -0.000004555   0.166667245
Al       0.500001627   0.500007396   0.166667607
Al       0.166676430   0.333323555   0.277777732
Al       0.166706368   0.833368390   0.277776919
Al       0.666631610   0.333293617   0.277776919
Al       0.666651503   0.833348497   0.277777757
Al       0.333389479   0.166610506   0.388878734
Al       0.333571571   0.666906207   0.388879048
Al       0.833093793   0.166428414   0.388879048
Al       0.833254594   0.666745406   0.388878901
Al      -0.000013172  -0.000061113   0.333330119
Al      -0.000036234   0.500036234   0.333332167
Al       0.499988601   0.000011399   0.333329378
Al       0.500061113   0.500013172   0.333330119
Al       0.162377192   0.337622793   0.444320428
Al       0.130057687   0.796735728   0.444295121
Al       0.703264272   0.369942298   0.444295121
Al       0.670966254   0.829033746   0.444319789
H        0.416690229   0.083308101   0.444414770



     Writing output data file Al_H23_3_3.save/
     NEW-OLD atomic charge density approx. for the potential

     negative rho (up, down):  8.218E-05 0.000E+00

     total cpu time spent up to now is    72320.2 secs

     Self-consistent Calculation

     iteration #  1     ecut=    30.00 Ry     beta= 0.30
     Davidson diagonalization with overlap
     c_bands:  2 eigenvalues not converged
     c_bands:  1 eigenvalues not converged
     c_bands:  4 eigenvalues not converged
     c_bands:  1 eigenvalues not converged
     c_bands:  1 eigenvalues not converged
     c_bands:  2 eigenvalues not converged
     ethr =  1.00E-06,  avg # of iterations =  9.5

     negative rho (up, down):  1.321E-04 0.000E+00

     total cpu time spent up to now is    73425.6 secs

     total energy              =    -447.81852114 Ry
     Harris-Foulkes estimate   =    -447.81945186 Ry
     estimated scf accuracy    <       0.43560841 Ry

     iteration #  2     ecut=    30.00 Ry     beta= 0.30
     Davidson diagonalization with overlap
     ethr =  4.00E-04,  avg # of iterations =  1.0

     negative rho (up, down):  3.839E-04 0.000E+00

     total cpu time spent up to now is    74024.1 secs

     total energy              =    -447.81732472 Ry
     Harris-Foulkes estimate   =    -447.81866939 Ry
     estimated scf accuracy    <       0.20157109 Ry

     iteration #  3     ecut=    30.00 Ry     beta= 0.30
     Davidson diagonalization with overlap
     ethr =  1.85E-04,  avg # of iterations =  1.0

     negative rho (up, down):  4.613E-04 0.000E+00

     total cpu time spent up to now is    74631.8 secs

     total energy              =    -447.81799756 Ry
     Harris-Foulkes estimate   =    -447.81799575 Ry
     estimated scf accuracy    <       0.00002835 Ry

     iteration #  4     ecut=    30.00 Ry     beta= 0.30
     Davidson diagonalization with overlap
     c_bands:  1 eigenvalues not converged
     c_bands:  2 eigenvalues not converged
     c_bands:  4 eigenvalues not converged
     c_bands:  1 eigenvalues not converged
     c_bands:  1 eigenvalues not converged
     c_bands:  1 eigenvalues not converged
     c_bands:  1 eigenvalues not converged
     c_bands:  2 eigenvalues not converged
     c_bands:  2 eigenvalues not converged
     c_bands:  4 eigenvalues not converged
     c_bands:  2 eigenvalues not converged
     c_bands:  1 eigenvalues not converged
     c_bands:  2 eigenvalues not converged
     c_bands:  2 eigenvalues not converged
     ethr =  2.60E-08,  avg # of iterations = 11.6

     negative rho (up, down):  4.492E-04 0.000E+00

     total cpu time spent up to now is    75586.4 secs

     total energy              =    -447.81872515 Ry
     Harris-Foulkes estimate   =    -447.81875428 Ry
     estimated scf accuracy    <       0.11428207 Ry

     iteration #  5     ecut=    30.00 Ry     beta= 0.30
     Davidson diagonalization with overlap
     ethr =  2.60E-08,  avg # of iterations =  2.2

     negative rho (up, down):  4.493E-04 0.000E+00

     total cpu time spent up to now is    76214.2 secs

     total energy              =    -447.81872015 Ry
     Harris-Foulkes estimate   =    -447.81872582 Ry
     estimated scf accuracy    <       0.10538142 Ry

     iteration #  6     ecut=    30.00 Ry     beta= 0.30
     Davidson diagonalization with overlap
     ethr =  2.60E-08,  avg # of iterations =  1.0

     negative rho (up, down):  5.328E-04 0.000E+00

     total cpu time spent up to now is    76813.0 secs

     total energy              =    -447.81905943 Ry
     Harris-Foulkes estimate   =    -447.81872021 Ry
     estimated scf accuracy    <       0.10408414 Ry

     iteration #  7     ecut=    30.00 Ry     beta= 0.30
     Davidson diagonalization with overlap
     ethr =  2.60E-08,  avg # of iterations =  5.4

     negative rho (up, down):  5.436E-04 0.000E+00

     total cpu time spent up to now is    77649.8 secs

     total energy              =    -447.81937437 Ry
     Harris-Foulkes estimate   =    -447.81915040 Ry
     estimated scf accuracy    <       0.25816187 Ry

     iteration #  8     ecut=    30.00 Ry     beta= 0.30
     Davidson diagonalization with overlap
     ethr =  2.60E-08,  avg # of iterations =  3.9

     negative rho (up, down):  5.154E-04 0.000E+00

     total cpu time spent up to now is    78309.4 secs

     total energy              =    -447.81893217 Ry
     Harris-Foulkes estimate   =    -447.81939112 Ry
     estimated scf accuracy    <       0.34697488 Ry

     iteration #  9     ecut=    30.00 Ry     beta= 0.30
     Davidson diagonalization with overlap
     c_bands:  1 eigenvalues not converged
     c_bands:  1 eigenvalues not converged
     c_bands:  1 eigenvalues not converged
     c_bands:  1 eigenvalues not converged
     c_bands:  1 eigenvalues not converged
     ethr =  2.60E-08,  avg # of iterations =  5.3

     negative rho (up, down):  5.189E-04 0.000E+00

     total cpu time spent up to now is    79024.0 secs

     total energy              =    -447.81867845 Ry
     Harris-Foulkes estimate   =    -447.81898416 Ry
     estimated scf accuracy    <       0.20062343 Ry

     iteration # 10     ecut=    30.00 Ry     beta= 0.30
     Davidson diagonalization with overlap
     ethr =  2.60E-08,  avg # of iterations =  5.3

     negative rho (up, down):  5.029E-04 0.000E+00

     total cpu time spent up to now is    79743.1 secs

     total energy              =    -447.81803234 Ry
     Harris-Foulkes estimate   =    -447.81872122 Ry
     estimated scf accuracy    <       0.10211693 Ry

     iteration # 11     ecut=    30.00 Ry     beta= 0.30
     Davidson diagonalization with overlap
     c_bands:  1 eigenvalues not converged
     ethr =  2.60E-08,  avg # of iterations =  7.1

     negative rho (up, down):  4.855E-04 0.000E+00

     total cpu time spent up to now is    80754.3 secs

     total energy              =    -447.81851970 Ry
     Harris-Foulkes estimate   =    -447.81850297 Ry
     estimated scf accuracy    <       0.01496167 Ry

     iteration # 12     ecut=    30.00 Ry     beta= 0.30
     Davidson diagonalization with overlap
     c_bands:  2 eigenvalues not converged
     ethr =  2.60E-08,  avg # of iterations =  3.3

     negative rho (up, down):  4.974E-04 0.000E+00

     total cpu time spent up to now is    81387.6 secs

     total energy              =    -447.81843183 Ry
     Harris-Foulkes estimate   =    -447.81852192 Ry
     estimated scf accuracy    <       0.02250373 Ry

     iteration # 13     ecut=    30.00 Ry     beta= 0.30
     Davidson diagonalization with overlap
     c_bands:  1 eigenvalues not converged
     c_bands:  1 eigenvalues not converged
     c_bands:  1 eigenvalues not converged
     c_bands:  1 eigenvalues not converged
     c_bands:  1 eigenvalues not converged
     c_bands:  1 eigenvalues not converged
     ethr =  2.60E-08,  avg # of iterations =  4.6

     negative rho (up, down):  5.112E-04 0.000E+00

     total cpu time spent up to now is    82067.0 secs

     total energy              =    -447.81846412 Ry
     Harris-Foulkes estimate   =    -447.81846543 Ry
     estimated scf accuracy    <       0.00109495 Ry

     iteration # 14     ecut=    30.00 Ry     beta= 0.30
     Davidson diagonalization with overlap
     ethr =  2.60E-08,  avg # of iterations =  1.0

     negative rho (up, down):  5.610E-04 0.000E+00

     total cpu time spent up to now is    82667.5 secs

     total energy              =    -447.81846228 Ry
     Harris-Foulkes estimate   =    -447.81846429 Ry
     estimated scf accuracy    <       0.00083188 Ry

     iteration # 15     ecut=    30.00 Ry     beta= 0.30
     Davidson diagonalization with overlap
     ethr =  2.60E-08,  avg # of iterations =  1.2

     negative rho (up, down):  5.260E-04 0.000E+00

     total cpu time spent up to now is    83270.5 secs

     total energy              =    -447.81846660 Ry
     Harris-Foulkes estimate   =    -447.81846284 Ry
     estimated scf accuracy    <       0.00042223 Ry

     iteration # 16     ecut=    30.00 Ry     beta= 0.30
     Davidson diagonalization with overlap
     ethr =  2.60E-08,  avg # of iterations =  1.2

     negative rho (up, down):  5.109E-04 0.000E+00

     total cpu time spent up to now is    83870.5 secs

     total energy              =    -447.81846978 Ry
     Harris-Foulkes estimate   =    -447.81846767 Ry
     estimated scf accuracy    <       0.00113689 Ry

     iteration # 17     ecut=    30.00 Ry     beta= 0.30
     Davidson diagonalization with overlap
     ethr =  2.60E-08,  avg # of iterations =  2.1

     negative rho (up, down):  5.444E-04 0.000E+00

     total cpu time spent up to now is    84485.6 secs

     total energy              =    -447.81846036 Ry
     Harris-Foulkes estimate   =    -447.81847014 Ry
     estimated scf accuracy    <       0.00157256 Ry

     iteration # 18     ecut=    30.00 Ry     beta= 0.30
     Davidson diagonalization with overlap
     ethr =  2.60E-08,  avg # of iterations =  2.7

     negative rho (up, down):  5.338E-04 0.000E+00

     total cpu time spent up to now is    85116.4 secs

     total energy              =    -447.81846119 Ry
     Harris-Foulkes estimate   =    -447.81846272 Ry
     estimated scf accuracy    <       0.00040400 Ry

     iteration # 19     ecut=    30.00 Ry     beta= 0.30
     Davidson diagonalization with overlap
     ethr =  2.60E-08,  avg # of iterations =  1.8

     negative rho (up, down):  5.037E-04 0.000E+00

     total cpu time spent up to now is    85730.2 secs

     total energy              =    -447.81846194 Ry
     Harris-Foulkes estimate   =    -447.81846193 Ry
     estimated scf accuracy    <       0.00015030 Ry

     iteration # 20     ecut=    30.00 Ry     beta= 0.30
     Davidson diagonalization with overlap
     ethr =  2.60E-08,  avg # of iterations =  1.0

     negative rho (up, down):  4.881E-04 0.000E+00

     total cpu time spent up to now is    86324.8 secs

     total energy              =    -447.81846057 Ry
     Harris-Foulkes estimate   =    -447.81846202 Ry
     estimated scf accuracy    <       0.00021397 Ry

     iteration # 21     ecut=    30.00 Ry     beta= 0.30
     Davidson diagonalization with overlap
     ethr =  2.60E-08,  avg # of iterations =  2.3

     negative rho (up, down):  5.029E-04 0.000E+00

     total cpu time spent up to now is    86948.2 secs

     total energy              =    -447.81846096 Ry
     Harris-Foulkes estimate   =    -447.81846113 Ry
     estimated scf accuracy    <       0.00003523 Ry

     iteration # 22     ecut=    30.00 Ry     beta= 0.30
     Davidson diagonalization with overlap
     ethr =  2.60E-08,  avg # of iterations =  1.1

     negative rho (up, down):  5.053E-04 0.000E+00

     total cpu time spent up to now is    87544.2 secs

     total energy              =    -447.81846112 Ry
     Harris-Foulkes estimate   =    -447.81846108 Ry
     estimated scf accuracy    <       0.00000615 Ry

     iteration # 23     ecut=    30.00 Ry     beta= 0.30
     Davidson diagonalization with overlap
     c_bands:  1 eigenvalues not converged
