
     Program PWSCF v.6.4.1 starts on 28May2020 at  1:37:31 

     This program is part of the open-source Quantum ESPRESSO suite
     for quantum simulation of materials; please cite
         "P. Giannozzi et al., J. Phys.:Condens. Matter 21 395502 (2009);
         "P. Giannozzi et al., J. Phys.:Condens. Matter 29 465901 (2017);
          URL http://www.quantum-espresso.org", 
     in publications or presentations arising from this work. More details at
     http://www.quantum-espresso.org/quote

     Parallel version (MPI & OpenMP), running on       1 processor cores
     Number of MPI processes:                 1
     Threads/MPI process:                     1

     MPI processes distributed on     1 nodes
     Reading input from Al_111_bulk_90_7.52.pw.in
Warning: card  &IONS ignored
Warning: card   ION_DYNAMICS = 'BFGS', ignored
Warning: card  / ignored
Warning: card  &CELL ignored
Warning: card  / ignored

     Current dimensions of program PWSCF are:
     Max number of different atomic species (ntypx) = 10
     Max number of k-points (npk) =  40000
     Max angular momentum in pseudopotentials (lmaxx) =  3

     Subspace diagonalization in iterative solution of the eigenvalue problem:
     a serial algorithm will be used

     Found symmetry operation: I + (  0.3333 -0.3333  0.3333)
     This is a supercell, fractional translations are disabled
 
     G-vector sticks info
     --------------------
     sticks:   dense  smooth     PW     G-vecs:    dense   smooth      PW
     Sum         583     583    421                28061    28061   16645
 


     bravais-lattice index     =            4
     lattice parameter (alat)  =       7.5200  a.u.
     unit-cell volume          =     902.1106 (a.u.)^3
     number of atoms/cell      =            3
     number of atomic types    =            1
     number of electrons       =         9.00
     number of Kohn-Sham states=            9
     kinetic-energy cutoff     =      90.0000  Ry
     charge density cutoff     =     150.0000  Ry
     convergence threshold     =      1.0E-08
     mixing beta               =       0.3000
     number of iterations used =            8  local-TF  mixing
     Exchange-correlation      =  SLA  PW   PBE  PBE ( 1  4  3  4 0 0)

     celldm(1)=   7.520000  celldm(2)=   0.000000  celldm(3)=   2.449490
     celldm(4)=   0.000000  celldm(5)=   0.000000  celldm(6)=   0.000000

     crystal axes: (cart. coord. in units of alat)
               a(1) = (   1.000000   0.000000   0.000000 )  
               a(2) = (  -0.500000   0.866025   0.000000 )  
               a(3) = (   0.000000   0.000000   2.449490 )  

     reciprocal axes: (cart. coord. in units 2 pi/alat)
               b(1) = (  1.000000  0.577350  0.000000 )  
               b(2) = (  0.000000  1.154701  0.000000 )  
               b(3) = (  0.000000  0.000000  0.408248 )  


     PseudoPot. # 1 for Al read from file:
     ./Al.pbe-n-van.UPF
     MD5 check sum: b11ded24487aef5bc42d5c7a2e22a7b6
     Pseudo is Ultrasoft + core correction, Zval =  3.0
     Generated by new atomic code, or converted to UPF format
     Using radial grid of  893 points,  2 beta functions with: 
                l(1) =   0
                l(2) =   1
     Q(r) pseudized with  8 coefficients,  rinner =    0.900   0.900   0.900


     atomic species   valence    mass     pseudopotential
        Al             3.00    26.98000     Al( 1.00)

     12 Sym. Ops., with inversion, found



   Cartesian axes

     site n.     atom                  positions (alat units)
         1           Al  tau(   1) = (   0.0000000   0.0000000   0.0000000  )
         2           Al  tau(   2) = (  -0.0000000   0.5773503   0.8164966  )
         3           Al  tau(   3) = (   0.5000000   0.2886751   1.6329932  )

     number of k points=   480  Marzari-Vanderbilt smearing, width (Ry)=  0.0250

     Number of k-points >= 100: set verbosity='high' to print them.

     Dense  grid:    28061 G-vectors     FFT dimensions: (  30,  30,  72)

     Estimated max dynamical RAM per process >     899.28 MB

     Initial potential from superposition of free atoms

     starting charge    8.99260, renormalised to    9.00000
     Starting wfcs are   12 randomized atomic wfcs

     total cpu time spent up to now is       16.8 secs

     Self-consistent Calculation

     iteration #  1     ecut=    90.00 Ry     beta= 0.30
     Davidson diagonalization with overlap
     ethr =  1.00E-02,  avg # of iterations =  2.6

     Threshold (ethr) on eigenvalues was too large:
     Diagonalizing with lowered threshold

     Davidson diagonalization with overlap
     ethr =  1.15E-04,  avg # of iterations =  2.7

     total cpu time spent up to now is       82.7 secs

     total energy              =     -37.03918766 Ry
     Harris-Foulkes estimate   =     -37.03982717 Ry
     estimated scf accuracy    <       0.01052024 Ry

     iteration #  2     ecut=    90.00 Ry     beta= 0.30
     Davidson diagonalization with overlap
     ethr =  1.17E-04,  avg # of iterations =  1.0

     total cpu time spent up to now is      107.7 secs

     total energy              =     -37.03733052 Ry
     Harris-Foulkes estimate   =     -37.03924138 Ry
     estimated scf accuracy    <       0.00704898 Ry

     iteration #  3     ecut=    90.00 Ry     beta= 0.30
     Davidson diagonalization with overlap
     ethr =  7.83E-05,  avg # of iterations =  1.0

     total cpu time spent up to now is      132.6 secs

     total energy              =     -37.03779920 Ry
     Harris-Foulkes estimate   =     -37.03778731 Ry
     estimated scf accuracy    <       0.00001470 Ry

     iteration #  4     ecut=    90.00 Ry     beta= 0.30
     Davidson diagonalization with overlap
     ethr =  1.63E-07,  avg # of iterations =  4.2

     total cpu time spent up to now is      177.2 secs

     total energy              =     -37.03784160 Ry
     Harris-Foulkes estimate   =     -37.03784289 Ry
     estimated scf accuracy    <       0.00000942 Ry

     iteration #  5     ecut=    90.00 Ry     beta= 0.30
     Davidson diagonalization with overlap
     ethr =  1.05E-07,  avg # of iterations =  1.0

     total cpu time spent up to now is      202.1 secs

     total energy              =     -37.03784226 Ry
     Harris-Foulkes estimate   =     -37.03784203 Ry
     estimated scf accuracy    <       0.00000068 Ry

     iteration #  6     ecut=    90.00 Ry     beta= 0.30
     Davidson diagonalization with overlap
     ethr =  7.54E-09,  avg # of iterations =  2.1

     total cpu time spent up to now is      233.7 secs

     total energy              =     -37.03784218 Ry
     Harris-Foulkes estimate   =     -37.03784260 Ry
     estimated scf accuracy    <       0.00000120 Ry

     iteration #  7     ecut=    90.00 Ry     beta= 0.30
     Davidson diagonalization with overlap
     ethr =  7.54E-09,  avg # of iterations =  2.0

     total cpu time spent up to now is      265.0 secs

     total energy              =     -37.03784234 Ry
     Harris-Foulkes estimate   =     -37.03784238 Ry
     estimated scf accuracy    <       0.00000019 Ry

     iteration #  8     ecut=    90.00 Ry     beta= 0.30
     Davidson diagonalization with overlap
     ethr =  2.15E-09,  avg # of iterations =  1.0

     total cpu time spent up to now is      289.9 secs

     total energy              =     -37.03784234 Ry
     Harris-Foulkes estimate   =     -37.03784235 Ry
     estimated scf accuracy    <       0.00000002 Ry

     iteration #  9     ecut=    90.00 Ry     beta= 0.30
     Davidson diagonalization with overlap
     ethr =  2.51E-10,  avg # of iterations =  1.0

     total cpu time spent up to now is      314.8 secs

     End of self-consistent calculation

     Number of k-points >= 100: set verbosity='high' to print the bands.

     the Fermi energy is     0.8457 ev

!    total energy              =     -37.03784234 Ry
     Harris-Foulkes estimate   =     -37.03784234 Ry
     estimated scf accuracy    <          2.1E-09 Ry

     The total energy is the sum of the following terms:

     one-electron contribution =       3.34034003 Ry
     hartree contribution      =       0.34081133 Ry
     xc contribution           =     -29.07855016 Ry
     ewald contribution        =     -11.64011314 Ry
     smearing contrib. (-TS)   =      -0.00033040 Ry

     convergence has been achieved in   9 iterations

     Forces acting on atoms (cartesian axes, Ry/au):

     atom    1 type  1   force =     0.00000000   -0.00000000    0.00000000
     atom    2 type  1   force =     0.00000000    0.00000000   -0.00000000
     atom    3 type  1   force =     0.00000000    0.00000000    0.00000000

     Total force =     0.000000     Total SCF correction =     0.000000
     SCF correction compared to forces is large: reduce conv_thr to get better values


     Computing stress (Cartesian axis) and pressure

          total   stress  (Ry/bohr**3)                   (kbar)     P=  -68.30
  -0.00046396  -0.00000000   0.00000000        -68.25     -0.00      0.00
  -0.00000000  -0.00046396   0.00000000         -0.00    -68.25      0.00
   0.00000000   0.00000000  -0.00046495          0.00      0.00    -68.40


     Writing output data file Al_111_bulk.save/
 
     init_run     :     16.42s CPU     16.80s WALL (       1 calls)
     electrons    :    296.17s CPU    297.95s WALL (       1 calls)
     forces       :      3.98s CPU      3.99s WALL (       1 calls)
     stress       :     23.07s CPU     23.12s WALL (       1 calls)

     Called by init_run:
     wfcinit      :     15.58s CPU     15.93s WALL (       1 calls)
     potinit      :      0.04s CPU      0.04s WALL (       1 calls)
     hinit0       :      0.76s CPU      0.78s WALL (       1 calls)

     Called by electrons:
     c_bands      :    247.76s CPU    249.08s WALL (      10 calls)
     sum_band     :     47.83s CPU     48.22s WALL (      10 calls)
     v_of_rho     :      0.35s CPU      0.36s WALL (      10 calls)
     newd         :      0.09s CPU      0.11s WALL (      10 calls)
     mix_rho      :      0.18s CPU      0.20s WALL (      10 calls)

     Called by c_bands:
     init_us_2    :     25.27s CPU     25.49s WALL (   11040 calls)
     cegterg      :    223.36s CPU    224.17s WALL (    4800 calls)

     Called by sum_band:
     sum_band:bec :      0.03s CPU      0.03s WALL (    4800 calls)
     addusdens    :      0.08s CPU      0.12s WALL (      10 calls)

     Called by *egterg:
     h_psi        :    174.29s CPU    174.74s WALL (   14242 calls)
     s_psi        :      6.88s CPU      6.92s WALL (   14242 calls)
     g_psi        :      7.25s CPU      7.26s WALL (    8962 calls)
     cdiaghg      :      2.29s CPU      2.37s WALL (   13282 calls)

     Called by h_psi:
     h_psi:pot    :    171.79s CPU    172.23s WALL (   14242 calls)
     h_psi:calbec :      7.19s CPU      7.22s WALL (   14242 calls)
     vloc_psi     :    157.62s CPU    158.02s WALL (   14242 calls)
     add_vuspsi   :      6.90s CPU      6.94s WALL (   14242 calls)

     General routines
     calbec       :     11.23s CPU     11.27s WALL (   21442 calls)
     fft          :      0.08s CPU      0.09s WALL (     136 calls)
     ffts         :      0.08s CPU      0.08s WALL (     124 calls)
     fftw         :    159.93s CPU    160.33s WALL (  262974 calls)
 
     Parallel routines
 
     PWSCF        :   5m40.09s CPU   5m53.03s WALL

 
   This run was terminated on:   1:43:24  28May2020            

=------------------------------------------------------------------------------=
   JOB DONE.
=------------------------------------------------------------------------------=
