--------------------------------------------------------------------------
[[3589,1],0]: A high-performance Open MPI point-to-point messaging module
was unable to find any relevant network interfaces:

Module: OpenFabrics (openib)
  Host: ubuntu

Another transport will be used instead, although this may result in
lower performance.
--------------------------------------------------------------------------

     Program PWSCF v.5.1 starts on  4Jun2020 at 12:36:11 

     This program is part of the open-source Quantum ESPRESSO suite
     for quantum simulation of materials; please cite
         "P. Giannozzi et al., J. Phys.:Condens. Matter 21 395502 (2009);
          URL http://www.quantum-espresso.org", 
     in publications or presentations arising from this work. More details at
     http://www.quantum-espresso.org/quote

     Parallel version (MPI), running on     1 processors
     Reading input from Al_111_H2_br_site_0.pw.in

     Current dimensions of program PWSCF are:
     Max number of different atomic species (ntypx) = 10
     Max number of k-points (npk) =  40000
     Max angular momentum in pseudopotentials (lmaxx) =  3
               file H.pbe-rrkjus.UPF: wavefunction(s)  1S renormalized

     Subspace diagonalization in iterative solution of the eigenvalue problem:
     a serial algorithm will be used


     G-vector sticks info
     --------------------
     sticks:   dense  smooth     PW     G-vecs:    dense   smooth      PW
     Sum         301     241     85                61593    44015    8065



     bravais-lattice index     =            4
     lattice parameter (alat)  =       5.3760  a.u.
     unit-cell volume          =    1977.5856 (a.u.)^3
     number of atoms/cell      =           10
     number of atomic types    =            2
     number of electrons       =        28.00
     number of Kohn-Sham states=           18
     kinetic-energy cutoff     =      30.0000  Ry
     charge density cutoff     =     150.0000  Ry
     convergence threshold     =      9.0E-06
     mixing beta               =       0.3000
     number of iterations used =            8  local-TF  mixing
     Exchange-correlation      =  SLA  PW   PBE  PBE ( 1  4  3  4 0)
     nstep                     =           50


     celldm(1)=   5.376000  celldm(2)=   0.000000  celldm(3)=  14.696938
     celldm(4)=   0.000000  celldm(5)=   0.000000  celldm(6)=   0.000000

     crystal axes: (cart. coord. in units of alat)
               a(1) = (   1.000000   0.000000   0.000000 )  
               a(2) = (  -0.500000   0.866025   0.000000 )  
               a(3) = (   0.000000   0.000000  14.696938 )  

     reciprocal axes: (cart. coord. in units 2 pi/alat)
               b(1) = (  1.000000  0.577350 -0.000000 )  
               b(2) = (  0.000000  1.154701  0.000000 )  
               b(3) = (  0.000000 -0.000000  0.068041 )  


     PseudoPot. # 1 for Al read from file:
     ./Al.pbe-n-van.UPF
     MD5 check sum: b11ded24487aef5bc42d5c7a2e22a7b6
     Pseudo is Ultrasoft + core correction, Zval =  3.0
     Generated by new atomic code, or converted to UPF format
     Using radial grid of  893 points,  2 beta functions with: 
                l(1) =   0
                l(2) =   1
     Q(r) pseudized with  8 coefficients,  rinner =    0.900   0.900   0.900


     PseudoPot. # 2 for H  read from file:
     ./H.pbe-rrkjus.UPF
     MD5 check sum: 0433647300470310da31d564c103eed6
     Pseudo is Ultrasoft, Zval =  1.0
     Generated by new atomic code, or converted to UPF format
     Using radial grid of 1061 points,  2 beta functions with: 
                l(1) =   0
                l(2) =   0
     Q(r) pseudized with 0 coefficients 


     atomic species   valence    mass     pseudopotential
        Al             3.00    26.98000     Al( 1.00)
        H              1.00     1.00790     H ( 1.00)

      2 Sym. Ops. (no inversion) found



   Cartesian axes

     site n.     atom                  positions (alat units)
         1           Al  tau(   1) = (   0.0000000   0.5773502   1.6329930  )
         2           Al  tau(   2) = (   0.4999999   0.2886751   0.8164965  )
         3           Al  tau(   3) = (   0.0000000   0.0000000   0.0000000  )
         4           Al  tau(   4) = (   0.0000000   0.5773502   4.0824827  )
         5           Al  tau(   5) = (   0.4999999   0.2886751   3.2659862  )
         6           Al  tau(   6) = (   0.0000000   0.0000000   2.4494897  )
         7           Al  tau(   7) = (   0.0000000   0.5773502   6.5319725  )
         8           Al  tau(   8) = (   0.4999999   0.2886751   5.7154760  )
         9           Al  tau(   9) = (   0.0000000   0.0000000   4.8989795  )
        10           H   tau(  10) = (   0.5000000   0.5773503   9.7979590  )

     number of k points=    73  Marzari-Vanderbilt smearing, width (Ry)=  0.0250
                       cart. coord. in units 2pi/alat
        k(    1) = (   0.0000000   0.0000000   0.0000000), wk =   0.0078125
        k(    2) = (   0.0000000   0.0721688   0.0000000), wk =   0.0156250
        k(    3) = (   0.0000000   0.1443376   0.0000000), wk =   0.0156250
        k(    4) = (   0.0000000   0.2165064   0.0000000), wk =   0.0156250
        k(    5) = (   0.0000000   0.2886751   0.0000000), wk =   0.0156250
        k(    6) = (   0.0000000   0.3608439   0.0000000), wk =   0.0156250
        k(    7) = (   0.0000000   0.4330127   0.0000000), wk =   0.0156250
        k(    8) = (   0.0000000   0.5051815   0.0000000), wk =   0.0156250
        k(    9) = (   0.0000000  -0.5773503   0.0000000), wk =   0.0078125
        k(   10) = (   0.0625000   0.1082532   0.0000000), wk =   0.0312500
        k(   11) = (   0.0625000   0.1804220   0.0000000), wk =   0.0312500
        k(   12) = (   0.0625000   0.2525907   0.0000000), wk =   0.0312500
        k(   13) = (   0.0625000   0.3247595   0.0000000), wk =   0.0312500
        k(   14) = (   0.0625000   0.3969283   0.0000000), wk =   0.0312500
        k(   15) = (   0.0625000   0.4690971   0.0000000), wk =   0.0312500
        k(   16) = (   0.0625000   0.5412659   0.0000000), wk =   0.0312500
        k(   17) = (   0.1250000   0.2165064   0.0000000), wk =   0.0312500
        k(   18) = (   0.1250000   0.2886751   0.0000000), wk =   0.0312500
        k(   19) = (   0.1250000   0.3608439   0.0000000), wk =   0.0312500
        k(   20) = (   0.1250000   0.4330127   0.0000000), wk =   0.0312500
        k(   21) = (   0.1250000   0.5051815   0.0000000), wk =   0.0312500
        k(   22) = (   0.1250000   0.5773503   0.0000000), wk =   0.0156250
        k(   23) = (   0.1875000   0.3247595   0.0000000), wk =   0.0312500
        k(   24) = (   0.1875000   0.3969283   0.0000000), wk =   0.0312500
        k(   25) = (   0.1875000   0.4690971   0.0000000), wk =   0.0312500
        k(   26) = (   0.1875000   0.5412659   0.0000000), wk =   0.0312500
        k(   27) = (   0.2500000   0.4330127   0.0000000), wk =   0.0312500
        k(   28) = (   0.2500000   0.5051815   0.0000000), wk =   0.0312500
        k(   29) = (   0.2500000   0.5773503   0.0000000), wk =   0.0156250
        k(   30) = (   0.3125000   0.5412659   0.0000000), wk =   0.0312500
        k(   31) = (  -0.0625000   0.0360844   0.0000000), wk =   0.0312500
        k(   32) = (  -0.1250000   0.0721688   0.0000000), wk =   0.0312500
        k(   33) = (  -0.1875000   0.1082532   0.0000000), wk =   0.0312500
        k(   34) = (  -0.2500000   0.1443376   0.0000000), wk =   0.0312500
        k(   35) = (  -0.3125000   0.1804220   0.0000000), wk =   0.0312500
        k(   36) = (  -0.3750000   0.2165064   0.0000000), wk =   0.0312500
        k(   37) = (  -0.4375000   0.2525907   0.0000000), wk =   0.0312500
        k(   38) = (   0.5000000  -0.2886751   0.0000000), wk =   0.0156250
        k(   39) = (   0.1250000   0.0000000   0.0000000), wk =   0.0156250
        k(   40) = (  -0.1250000   0.1443376   0.0000000), wk =   0.0312500
        k(   41) = (   0.1875000   0.0360844   0.0000000), wk =   0.0312500
        k(   42) = (  -0.1875000   0.1804220   0.0000000), wk =   0.0312500
        k(   43) = (   0.2500000   0.0721688   0.0000000), wk =   0.0312500
        k(   44) = (  -0.2500000   0.2165064   0.0000000), wk =   0.0312500
        k(   45) = (   0.3125000   0.1082532   0.0000000), wk =   0.0312500
        k(   46) = (  -0.3125000   0.2525907   0.0000000), wk =   0.0312500
        k(   47) = (   0.3750000   0.1443376   0.0000000), wk =   0.0312500
        k(   48) = (  -0.3750000   0.2886751   0.0000000), wk =   0.0312500
        k(   49) = (   0.4375000   0.1804220   0.0000000), wk =   0.0312500
        k(   50) = (  -0.4375000   0.3247595   0.0000000), wk =   0.0312500
        k(   51) = (   0.5000000   0.2165064   0.0000000), wk =   0.0312500
        k(   52) = (   0.2500000   0.0000000   0.0000000), wk =   0.0156250
        k(   53) = (  -0.1875000   0.2525907   0.0000000), wk =   0.0312500
        k(   54) = (   0.3125000   0.0360844   0.0000000), wk =   0.0312500
        k(   55) = (  -0.2500000   0.2886751   0.0000000), wk =   0.0312500
        k(   56) = (   0.3750000   0.0721688   0.0000000), wk =   0.0312500
        k(   57) = (  -0.3125000   0.3247595   0.0000000), wk =   0.0312500
        k(   58) = (   0.4375000   0.1082532   0.0000000), wk =   0.0312500
        k(   59) = (  -0.3750000   0.3608439   0.0000000), wk =   0.0312500
        k(   60) = (   0.5000000   0.1443376   0.0000000), wk =   0.0312500
        k(   61) = (  -0.4375000   0.3969283   0.0000000), wk =   0.0312500
        k(   62) = (   0.3750000   0.0000000   0.0000000), wk =   0.0156250
        k(   63) = (  -0.2500000   0.3608439   0.0000000), wk =   0.0312500
        k(   64) = (   0.4375000   0.0360844   0.0000000), wk =   0.0312500
        k(   65) = (  -0.3125000   0.3969283   0.0000000), wk =   0.0312500
        k(   66) = (   0.5000000   0.0721688   0.0000000), wk =   0.0312500
        k(   67) = (  -0.3750000   0.4330127   0.0000000), wk =   0.0312500
        k(   68) = (   0.5625000   0.1082532   0.0000000), wk =   0.0312500
        k(   69) = (   0.5000000   0.0000000   0.0000000), wk =   0.0156250
        k(   70) = (  -0.3125000   0.4690971   0.0000000), wk =   0.0312500
        k(   71) = (   0.5625000   0.0360844   0.0000000), wk =   0.0312500
        k(   72) = (  -0.3750000   0.5051815   0.0000000), wk =   0.0312500
        k(   73) = (   0.6250000   0.0000000   0.0000000), wk =   0.0156250

     Dense  grid:    61593 G-vectors     FFT dimensions: (  24,  24, 320)

     Smooth grid:    44015 G-vectors     FFT dimensions: (  20,  20, 288)

     Largest allocated arrays     est. size (Mb)     dimensions
        Kohn-Sham Wavefunctions         1.52 Mb     (    5537,   18)
        NL pseudopotentials             3.21 Mb     (    5537,   38)
        Each V/rho on FFT grid          2.81 Mb     (  184320)
        Each G-vector array             0.47 Mb     (   61593)
        G-vector shells                 0.01 Mb     (    1885)
     Largest temporary arrays     est. size (Mb)     dimensions
        Auxiliary wavefunctions         6.08 Mb     (    5537,   72)
        Each subspace H/S matrix        0.08 Mb     (      72,   72)
        Each <psi_i|beta_j> matrix      0.01 Mb     (      38,   18)
        Arrays for rho mixing          22.50 Mb     (  184320,    8)

     Initial potential from superposition of free atoms

     starting charge   27.88161, renormalised to   28.00000

     negative rho (up, down):  4.808E-05 0.000E+00
     Starting wfc are   37 randomized atomic wfcs

     total cpu time spent up to now is        9.1 secs

     per-process dynamical memory:   156.8 Mb

     Self-consistent Calculation

     iteration #  1     ecut=    30.00 Ry     beta=0.30
     Davidson diagonalization with overlap
     ethr =  1.00E-02,  avg # of iterations =  8.0

     negative rho (up, down):  1.726E-02 0.000E+00

     total cpu time spent up to now is       44.6 secs

     total energy              =    -114.35863044 Ry
     Harris-Foulkes estimate   =    -117.97424590 Ry
     estimated scf accuracy    <     477.67146843 Ry

     iteration #  2     ecut=    30.00 Ry     beta=0.30
     Davidson diagonalization with overlap
     ethr =  1.00E-02,  avg # of iterations =  2.0

     negative rho (up, down):  1.093E-01 0.000E+00

     total cpu time spent up to now is       57.7 secs

     total energy              =    -112.00208770 Ry
     Harris-Foulkes estimate   =    -115.03783538 Ry
     estimated scf accuracy    <     167.08785056 Ry

     iteration #  3     ecut=    30.00 Ry     beta=0.30
     Davidson diagonalization with overlap
     ethr =  1.00E-02,  avg # of iterations =  3.3

     negative rho (up, down):  1.657E-01 0.000E+00

     total cpu time spent up to now is       73.1 secs

     total energy              =    -112.87863336 Ry
     Harris-Foulkes estimate   =    -113.27974280 Ry
     estimated scf accuracy    <      12.48822238 Ry

     iteration #  4     ecut=    30.00 Ry     beta=0.30
     Davidson diagonalization with overlap
     ethr =  1.00E-02,  avg # of iterations =  2.0

     negative rho (up, down):  1.473E-01 0.000E+00

     total cpu time spent up to now is       86.2 secs

     total energy              =    -113.11694579 Ry
     Harris-Foulkes estimate   =    -113.16531282 Ry
     estimated scf accuracy    <       1.90137610 Ry

     iteration #  5     ecut=    30.00 Ry     beta=0.30
     Davidson diagonalization with overlap
     ethr =  6.79E-03,  avg # of iterations =  1.2

     negative rho (up, down):  1.118E-01 0.000E+00

     total cpu time spent up to now is       99.0 secs

     total energy              =    -113.08317151 Ry
     Harris-Foulkes estimate   =    -113.13891023 Ry
     estimated scf accuracy    <       0.73472308 Ry

     iteration #  6     ecut=    30.00 Ry     beta=0.30
     Davidson diagonalization with overlap
     ethr =  2.62E-03,  avg # of iterations =  1.5

     negative rho (up, down):  1.204E-01 0.000E+00

     total cpu time spent up to now is      111.5 secs

     total energy              =    -113.10291340 Ry
     Harris-Foulkes estimate   =    -113.12460215 Ry
     estimated scf accuracy    <       0.67822888 Ry

     iteration #  7     ecut=    30.00 Ry     beta=0.30
     Davidson diagonalization with overlap
     ethr =  2.42E-03,  avg # of iterations =  1.3

     negative rho (up, down):  1.048E-01 0.000E+00

     total cpu time spent up to now is      124.4 secs

     total energy              =    -113.13587623 Ry
     Harris-Foulkes estimate   =    -113.13687100 Ry
     estimated scf accuracy    <       0.65441920 Ry

     iteration #  8     ecut=    30.00 Ry     beta=0.30
     Davidson diagonalization with overlap
     ethr =  2.34E-03,  avg # of iterations =  1.2

     negative rho (up, down):  7.713E-02 0.000E+00

     total cpu time spent up to now is      137.2 secs

     total energy              =    -113.11839034 Ry
     Harris-Foulkes estimate   =    -113.13940488 Ry
     estimated scf accuracy    <       1.02609399 Ry

     iteration #  9     ecut=    30.00 Ry     beta=0.30
     Davidson diagonalization with overlap
     ethr =  2.34E-03,  avg # of iterations =  1.3

     negative rho (up, down):  5.907E-02 0.000E+00

     total cpu time spent up to now is      150.3 secs

     total energy              =    -113.10201778 Ry
     Harris-Foulkes estimate   =    -113.12156008 Ry
     estimated scf accuracy    <       0.37150468 Ry

     iteration # 10     ecut=    30.00 Ry     beta=0.30
     Davidson diagonalization with overlap
     ethr =  1.33E-03,  avg # of iterations =  1.8

     negative rho (up, down):  5.820E-02 0.000E+00

     total cpu time spent up to now is      163.5 secs

     total energy              =    -113.11433127 Ry
     Harris-Foulkes estimate   =    -113.11342992 Ry
     estimated scf accuracy    <       0.12510351 Ry

     iteration # 11     ecut=    30.00 Ry     beta=0.30
     Davidson diagonalization with overlap
     ethr =  4.47E-04,  avg # of iterations =  2.0

     negative rho (up, down):  2.841E-02 0.000E+00

     total cpu time spent up to now is      176.3 secs

     total energy              =    -113.11476964 Ry
     Harris-Foulkes estimate   =    -113.11537068 Ry
     estimated scf accuracy    <       0.41717571 Ry

     iteration # 12     ecut=    30.00 Ry     beta=0.30
     Davidson diagonalization with overlap
     ethr =  4.47E-04,  avg # of iterations =  2.0

     negative rho (up, down):  1.787E-02 0.000E+00

     total cpu time spent up to now is      190.1 secs

     total energy              =    -113.10454107 Ry
     Harris-Foulkes estimate   =    -113.11648324 Ry
     estimated scf accuracy    <       0.85486249 Ry

     iteration # 13     ecut=    30.00 Ry     beta=0.30
     Davidson diagonalization with overlap
     ethr =  4.47E-04,  avg # of iterations =  1.6

     negative rho (up, down):  1.657E-02 0.000E+00

     total cpu time spent up to now is      204.4 secs

     total energy              =    -113.10991931 Ry
     Harris-Foulkes estimate   =    -113.10912164 Ry
     estimated scf accuracy    <       0.12037052 Ry

     iteration # 14     ecut=    30.00 Ry     beta=0.30
     Davidson diagonalization with overlap
     ethr =  4.30E-04,  avg # of iterations =  1.1

     negative rho (up, down):  1.241E-02 0.000E+00

     total cpu time spent up to now is      217.5 secs

     total energy              =    -113.10815383 Ry
     Harris-Foulkes estimate   =    -113.11070598 Ry
     estimated scf accuracy    <       0.26037200 Ry

     iteration # 15     ecut=    30.00 Ry     beta=0.30
     Davidson diagonalization with overlap
     ethr =  4.30E-04,  avg # of iterations =  1.0

     negative rho (up, down):  6.369E-03 0.000E+00

     total cpu time spent up to now is      230.3 secs

     total energy              =    -113.10818939 Ry
     Harris-Foulkes estimate   =    -113.10880185 Ry
     estimated scf accuracy    <       0.06400634 Ry

     iteration # 16     ecut=    30.00 Ry     beta=0.30
     Davidson diagonalization with overlap
     ethr =  2.29E-04,  avg # of iterations =  1.5

     negative rho (up, down):  4.828E-03 0.000E+00

     total cpu time spent up to now is      243.5 secs

     total energy              =    -113.10705201 Ry
     Harris-Foulkes estimate   =    -113.10830292 Ry
     estimated scf accuracy    <       0.03555124 Ry

     iteration # 17     ecut=    30.00 Ry     beta=0.30
     Davidson diagonalization with overlap
     ethr =  1.27E-04,  avg # of iterations =  1.2

     negative rho (up, down):  6.092E-03 0.000E+00

     total cpu time spent up to now is      258.0 secs

     total energy              =    -113.10766800 Ry
     Harris-Foulkes estimate   =    -113.10810406 Ry
     estimated scf accuracy    <       0.01368862 Ry

     iteration # 18     ecut=    30.00 Ry     beta=0.30
     Davidson diagonalization with overlap
     ethr =  4.89E-05,  avg # of iterations =  2.6

     negative rho (up, down):  6.090E-03 0.000E+00

     total cpu time spent up to now is      271.2 secs

     total energy              =    -113.10787247 Ry
     Harris-Foulkes estimate   =    -113.10785066 Ry
     estimated scf accuracy    <       0.00074192 Ry

     iteration # 19     ecut=    30.00 Ry     beta=0.30
     Davidson diagonalization with overlap
     ethr =  2.65E-06,  avg # of iterations =  5.0

     negative rho (up, down):  2.998E-03 0.000E+00

     total cpu time spent up to now is      286.6 secs

     total energy              =    -113.10743066 Ry
     Harris-Foulkes estimate   =    -113.10810758 Ry
     estimated scf accuracy    <       0.01893840 Ry

     iteration # 20     ecut=    30.00 Ry     beta=0.30
     Davidson diagonalization with overlap
     ethr =  2.65E-06,  avg # of iterations =  2.5

     negative rho (up, down):  1.781E-03 0.000E+00

     total cpu time spent up to now is      300.0 secs

     total energy              =    -113.10792845 Ry
     Harris-Foulkes estimate   =    -113.10789119 Ry
     estimated scf accuracy    <       0.00423607 Ry

     iteration # 21     ecut=    30.00 Ry     beta=0.30
     Davidson diagonalization with overlap
     ethr =  2.65E-06,  avg # of iterations =  2.2

     negative rho (up, down):  2.005E-03 0.000E+00

     total cpu time spent up to now is      312.9 secs

     total energy              =    -113.10794794 Ry
     Harris-Foulkes estimate   =    -113.10795641 Ry
     estimated scf accuracy    <       0.01157503 Ry

     iteration # 22     ecut=    30.00 Ry     beta=0.30
     Davidson diagonalization with overlap
     ethr =  2.65E-06,  avg # of iterations =  1.0

     negative rho (up, down):  1.571E-03 0.000E+00

     total cpu time spent up to now is      325.3 secs

     total energy              =    -113.10785492 Ry
     Harris-Foulkes estimate   =    -113.10794882 Ry
     estimated scf accuracy    <       0.01120144 Ry

     iteration # 23     ecut=    30.00 Ry     beta=0.30
     Davidson diagonalization with overlap
     ethr =  2.65E-06,  avg # of iterations =  1.9

     negative rho (up, down):  1.322E-03 0.000E+00

     total cpu time spent up to now is      338.2 secs

     total energy              =    -113.10784440 Ry
     Harris-Foulkes estimate   =    -113.10788708 Ry
     estimated scf accuracy    <       0.00270127 Ry

     iteration # 24     ecut=    30.00 Ry     beta=0.30
     Davidson diagonalization with overlap
     ethr =  2.65E-06,  avg # of iterations =  1.7

     negative rho (up, down):  1.251E-03 0.000E+00

     total cpu time spent up to now is      351.6 secs

     total energy              =    -113.10786224 Ry
     Harris-Foulkes estimate   =    -113.10785921 Ry
     estimated scf accuracy    <       0.00025201 Ry

     iteration # 25     ecut=    30.00 Ry     beta=0.30
     Davidson diagonalization with overlap
     ethr =  9.00E-07,  avg # of iterations =  1.8

     negative rho (up, down):  6.244E-04 0.000E+00

     total cpu time spent up to now is      364.4 secs

     total energy              =    -113.10785353 Ry
     Harris-Foulkes estimate   =    -113.10786511 Ry
     estimated scf accuracy    <       0.00003122 Ry

     iteration # 26     ecut=    30.00 Ry     beta=0.30
     Davidson diagonalization with overlap
     ethr =  1.11E-07,  avg # of iterations =  3.3

     negative rho (up, down):  1.846E-04 0.000E+00

     total cpu time spent up to now is      377.9 secs

     total energy              =    -113.10783872 Ry
     Harris-Foulkes estimate   =    -113.10785577 Ry
     estimated scf accuracy    <       0.00022204 Ry

     iteration # 27     ecut=    30.00 Ry     beta=0.30
     Davidson diagonalization with overlap
     ethr =  1.11E-07,  avg # of iterations =  1.8

     negative rho (up, down):  9.426E-05 0.000E+00

     total cpu time spent up to now is      390.5 secs

     total energy              =    -113.10784338 Ry
     Harris-Foulkes estimate   =    -113.10784273 Ry
     estimated scf accuracy    <       0.00001328 Ry

     iteration # 28     ecut=    30.00 Ry     beta=0.30
     Davidson diagonalization with overlap
     ethr =  4.74E-08,  avg # of iterations =  1.4

     negative rho (up, down):  5.753E-06 0.000E+00

     total cpu time spent up to now is      402.7 secs

     End of self-consistent calculation

          k = 0.0000 0.0000 0.0000 (  5537 PWs)   bands (ev):

    -9.6748  -9.4364  -9.0465  -8.5109  -7.8266  -7.0010  -6.0359  -4.9395
    -3.6825  -2.5196  -1.0347  -0.7162   0.4697   2.0110   3.5196   4.8493
     5.7863   6.4130

          k = 0.0000 0.0722 0.0000 (  5524 PWs)   bands (ev):

    -9.5793  -9.3410  -8.9514  -8.4160  -7.7321  -6.9070  -5.9424  -4.8465
    -3.5895  -2.4299  -0.9450  -0.6425   0.5575   2.0969   3.6043   4.9345
     5.8752   6.5027

          k = 0.0000 0.1443 0.0000 (  5500 PWs)   bands (ev):

    -9.2932  -9.0553  -8.6664  -8.1319  -7.4492  -6.6255  -5.6626  -4.5684
    -3.3114  -2.1618  -0.6780  -0.4246   0.8199   2.3530   3.8528   5.1804
     6.1315   6.7592

          k = 0.0000 0.2165 0.0000 (  5496 PWs)   bands (ev):

    -8.8176  -8.5804  -8.1926  -7.6597  -6.9790  -6.1578  -5.1976  -4.1066
    -2.8509  -1.7164  -0.2368  -0.0724   1.2492   2.7605   4.2123   5.3985
     5.9695   6.0936

          k = 0.0000 0.2887 0.0000 (  5490 PWs)   bands (ev):

    -8.1544  -7.9181  -7.5320  -7.0014  -6.3237  -5.5060  -4.5501  -3.4645
    -2.2138  -1.0969   0.3644   0.3938   1.7991   3.0530   3.6561   4.0280
     4.1711   4.6612

          k = 0.0000 0.3608 0.0000 (  5482 PWs)   bands (ev):

    -7.3061  -7.0712  -6.6872  -6.1597  -5.4859  -4.6733  -3.7244  -2.6492
    -1.4170  -0.3214   0.9356   0.9542   1.4110   1.7698   2.2087   2.6447
     2.8844   3.3209

          k = 0.0000 0.4330 0.0000 (  5488 PWs)   bands (ev):

    -6.2763  -6.0431  -5.6618  -5.1384  -4.4706  -3.6665  -2.7317  -1.6882
    -0.6338  -0.4457  -0.2078   0.2267   0.7408   0.9604   1.4438   1.4834
     2.1948   2.3120

          k = 0.0000 0.5052 0.0000 (  5504 PWs)   bands (ev):

    -5.0690  -4.8380  -4.4610  -3.9442  -3.2879  -2.5158  -2.1427  -1.9247
    -1.6439  -1.5491  -1.1374  -0.5664  -0.0423   0.5653   0.9602   1.4398
     1.9083   1.9190

          k = 0.0000-0.5774 0.0000 (  5484 PWs)   bands (ev):

    -3.6928  -3.6915  -3.4691  -3.4653  -3.1376  -3.0465  -2.6166  -2.5461
    -2.0056  -1.9194  -1.3936  -0.8995  -0.1552   0.1439   0.9513   1.0411
     2.2015   2.2308

          k = 0.0625 0.1083 0.0000 (  5511 PWs)   bands (ev):

    -9.3885  -9.1505  -8.7613  -8.2265  -7.5434  -6.7193  -5.7558  -4.6610
    -3.4038  -2.2510  -0.7668  -0.4967   0.7330   2.2684   3.7715   5.1012
     6.0493   6.6781

          k = 0.0625 0.1804 0.0000 (  5519 PWs)   bands (ev):

    -9.0077  -8.7702  -8.3819  -7.8484  -7.1669  -6.3447  -5.3834  -4.2909
    -3.0344  -1.8942  -0.4124  -0.2115   1.0794   2.6029   4.0878   5.3977
     6.3431   6.9263

          k = 0.0625 0.2526 0.0000 (  5496 PWs)   bands (ev):

    -8.4383  -8.2016  -7.8147  -7.2831  -6.6041  -5.7848  -4.8270  -3.7388
    -2.4854  -1.3614   0.1110   0.1986   1.5805   3.0475   4.2866   4.9277
     5.0743   5.3466

          k = 0.0625 0.3248 0.0000 (  5488 PWs)   bands (ev):

    -7.6825  -7.4470  -7.0620  -6.5331  -5.8576  -5.0425  -4.0902  -3.0095
    -1.7656  -0.6592   0.7051   0.7669   2.0138   2.5502   2.9661   3.2617
     3.6745   4.0342

          k = 0.0625 0.3969 0.0000 (  5490 PWs)   bands (ev):

    -6.7434  -6.5095  -6.1270  -5.6016  -4.9307  -4.1221  -3.1793  -2.1149
    -0.9162   0.1220   0.5071   0.7870   1.2087   1.2562   1.7112   2.0427
     2.3843   3.1337

          k = 0.0625 0.4691 0.0000 (  5501 PWs)   bands (ev):

    -5.6248  -5.3927  -5.0137  -4.4934  -3.8300  -3.0344  -2.1206  -1.2768
    -1.1447  -0.9989  -0.7192  -0.1680   0.4508   0.7765   1.3463   1.4600
     1.7600   2.3052

          k = 0.0625 0.5413 0.0000 (  5499 PWs)   bands (ev):

    -4.3316  -4.1027  -3.7296  -3.2224  -2.8809  -2.6644  -2.5420  -2.2740
    -1.8488  -1.7609  -1.2665  -0.7391  -0.1160   0.4446   0.7481   1.6080
     1.7754   2.0770

          k = 0.1250 0.2165 0.0000 (  5513 PWs)   bands (ev):

    -8.5330  -8.2962  -7.9091  -7.3772  -6.6978  -5.8780  -4.9195  -3.8305
    -2.5763  -1.4500   0.0255   0.1322   1.5024   2.9964   4.4103   5.5197
     6.1138   6.1893

          k = 0.1250 0.2887 0.0000 (  5487 PWs)   bands (ev):

    -7.8710  -7.6353  -7.2498  -6.7202  -6.0438  -5.2275  -4.2736  -3.1907
    -1.9429  -0.8321   0.5853   0.6209   2.0408   3.2824   3.8824   4.2395
     4.3991   4.8756

          k = 0.1250 0.3608 0.0000 (  5494 PWs)   bands (ev):

    -7.0245  -6.7901  -6.4067  -5.8802  -5.2079  -4.3971  -3.4506  -2.3785
    -1.1516  -0.0605   1.1084   1.2064   1.6701   2.0250   2.4572   2.8920
     3.0825   3.5299

          k = 0.1250 0.4330 0.0000 (  5496 PWs)   bands (ev):

    -5.9967  -5.7639  -5.3836  -4.8612  -4.1947  -3.3929  -2.4616  -1.4230
    -0.3737  -0.1787   0.0553   0.4846   0.9941   1.2277   1.6323   1.7002
     2.4359   2.5074

          k = 0.1250 0.5052 0.0000 (  5491 PWs)   bands (ev):

    -4.7917  -4.5612  -4.1852  -3.6701  -3.0162  -2.2479  -1.8719  -1.6545
    -1.3784  -1.2811  -0.8725  -0.3048   0.2195   0.8242   1.1956   1.6832
     2.0440   2.1479

          k = 0.1250 0.5774 0.0000 (  5460 PWs)   bands (ev):

    -3.4184  -3.4171  -3.1960  -3.1921  -2.8675  -2.7718  -2.3462  -2.2734
    -1.7386  -1.6508  -1.1307  -0.6343   0.1049   0.4045   1.1999   1.2803
     2.3971   2.3986

          k = 0.1875 0.3248 0.0000 (  5509 PWs)   bands (ev):

    -7.1183  -6.8837  -6.5002  -5.9734  -5.3005  -4.4888  -3.5411  -2.4671
    -1.2342  -0.1382   1.0573   1.2459   2.4019   2.8872   3.1105   3.3219
     3.5913   3.6626

          k = 0.1875 0.3969 0.0000 (  5493 PWs)   bands (ev):

    -6.1830  -5.9499  -5.5688  -5.0455  -4.3777  -3.5736  -2.6372  -1.5822
    -0.4022   0.6241   1.0298   1.2997   1.5618   1.7162   2.1636   2.2828
     2.4917   2.8182

          k = 0.1875 0.4691 0.0000 (  5470 PWs)   bands (ev):

    -5.0688  -4.8375  -4.4600  -3.9424  -3.2833  -2.4937  -1.5890  -0.7434
    -0.6170  -0.4692  -0.1917   0.3461   0.9215   1.2490   1.8183   1.8401
     2.0119   2.1358

          k = 0.1875 0.5413 0.0000 (  5454 PWs)   bands (ev):

    -3.7808  -3.5532  -3.1826  -2.6798  -2.3385  -2.1249  -1.9991  -1.7329
    -1.3185  -1.2257  -0.7423  -0.2186   0.3976   0.9148   1.2179   1.8072
     1.9332   2.0894

          k = 0.2500 0.4330 0.0000 (  5491 PWs)   bands (ev):

    -5.1612  -4.9299  -4.5521  -4.0338  -3.3733  -2.5806  -1.6643  -0.6571
     0.3204   0.6069   0.6100   0.7285   0.8378   1.1047   1.4072   1.7690
     2.0247   2.0461

          k = 0.2500 0.5052 0.0000 (  5430 PWs)   bands (ev):

    -3.9636  -3.7349  -3.3622  -2.8524  -2.2071  -1.4529  -1.0639  -0.8493
    -0.6033  -0.4876  -0.0973   0.3294   0.4006   0.5448   0.7966   0.9954
     1.3927   1.5764

          k = 0.2500 0.5774 0.0000 (  5430 PWs)   bands (ev):

    -2.6007  -2.5992  -2.3817  -2.3768  -2.0610  -1.9557  -1.5433  -1.4646
    -0.9513  -0.8541  -0.3610   0.0949   0.2594   0.4593   0.7841   0.7979
     1.1161   1.1781

          k = 0.3125 0.5413 0.0000 (  5411 PWs)   bands (ev):

    -2.6886  -2.4648  -2.1015  -1.6148  -1.2720  -1.2515  -1.0765  -1.0332
    -0.9100  -0.7171  -0.6136  -0.3318  -0.1703  -0.1613   0.1511   0.4356
     0.8903   1.0391

          k =-0.0625 0.0361 0.0000 (  5524 PWs)   bands (ev):

    -9.5793  -9.3410  -8.9514  -8.4160  -7.7321  -6.9070  -5.9424  -4.8465
    -3.5895  -2.4299  -0.9450  -0.6425   0.5575   2.0969   3.6043   4.9345
     5.8752   6.5027

          k =-0.1250 0.0722 0.0000 (  5500 PWs)   bands (ev):

    -9.2932  -9.0553  -8.6664  -8.1319  -7.4492  -6.6255  -5.6626  -4.5684
    -3.3114  -2.1618  -0.6780  -0.4246   0.8199   2.3530   3.8528   5.1804
     6.1315   6.7592

          k =-0.1875 0.1083 0.0000 (  5496 PWs)   bands (ev):

    -8.8176  -8.5804  -8.1926  -7.6597  -6.9790  -6.1578  -5.1976  -4.1066
    -2.8509  -1.7164  -0.2368  -0.0724   1.2492   2.7605   4.2123   5.3985
     5.9694   6.0936

          k =-0.2500 0.1443 0.0000 (  5490 PWs)   bands (ev):

    -8.1544  -7.9181  -7.5320  -7.0014  -6.3237  -5.5060  -4.5501  -3.4645
    -2.2138  -1.0969   0.3644   0.3938   1.7991   3.0530   3.6561   4.0280
     4.1711   4.6612

          k =-0.3125 0.1804 0.0000 (  5482 PWs)   bands (ev):

    -7.3061  -7.0712  -6.6872  -6.1597  -5.4859  -4.6733  -3.7244  -2.6492
    -1.4170  -0.3214   0.9356   0.9542   1.4110   1.7698   2.2087   2.6447
     2.8844   3.3210

          k =-0.3750 0.2165 0.0000 (  5488 PWs)   bands (ev):

    -6.2763  -6.0431  -5.6618  -5.1384  -4.4706  -3.6665  -2.7317  -1.6882
    -0.6338  -0.4457  -0.2078   0.2267   0.7408   0.9604   1.4438   1.4834
     2.1947   2.3120

          k =-0.4375 0.2526 0.0000 (  5504 PWs)   bands (ev):

    -5.0690  -4.8380  -4.4610  -3.9442  -3.2879  -2.5158  -2.1427  -1.9247
    -1.6439  -1.5491  -1.1374  -0.5664  -0.0423   0.5653   0.9602   1.4398
     1.9083   1.9190

          k = 0.5000-0.2887 0.0000 (  5484 PWs)   bands (ev):

    -3.6928  -3.6915  -3.4691  -3.4653  -3.1376  -3.0465  -2.6166  -2.5461
    -2.0056  -1.9194  -1.3936  -0.8995  -0.1552   0.1439   0.9513   1.0411
     2.0910   2.2015

          k = 0.1250 0.0000 0.0000 (  5511 PWs)   bands (ev):

    -9.3885  -9.1505  -8.7613  -8.2265  -7.5434  -6.7193  -5.7558  -4.6610
    -3.4038  -2.2510  -0.7668  -0.4967   0.7330   2.2684   3.7715   5.1012
     6.0493   6.6781

          k =-0.1250 0.1443 0.0000 (  5519 PWs)   bands (ev):

    -9.0077  -8.7702  -8.3819  -7.8484  -7.1669  -6.3447  -5.3834  -4.2909
    -3.0344  -1.8942  -0.4124  -0.2115   1.0794   2.6029   4.0878   5.3977
     6.3431   6.9263

          k = 0.1875 0.0361 0.0000 (  5519 PWs)   bands (ev):

    -9.0077  -8.7702  -8.3819  -7.8484  -7.1669  -6.3447  -5.3834  -4.2909
    -3.0344  -1.8942  -0.4124  -0.2115   1.0794   2.6029   4.0878   5.3977
     6.3431   6.9263

          k =-0.1875 0.1804 0.0000 (  5496 PWs)   bands (ev):

    -8.4383  -8.2016  -7.8147  -7.2831  -6.6041  -5.7848  -4.8270  -3.7388
    -2.4854  -1.3614   0.1110   0.1986   1.5805   3.0475   4.2866   4.9277
     5.0743   5.3466

          k = 0.2500 0.0722 0.0000 (  5496 PWs)   bands (ev):

    -8.4383  -8.2016  -7.8147  -7.2831  -6.6041  -5.7848  -4.8270  -3.7388
    -2.4854  -1.3614   0.1110   0.1986   1.5805   3.0475   4.2866   4.9277
     5.0742   5.3466

          k =-0.2500 0.2165 0.0000 (  5488 PWs)   bands (ev):

    -7.6825  -7.4470  -7.0620  -6.5331  -5.8576  -5.0425  -4.0902  -3.0095
    -1.7656  -0.6592   0.7051   0.7669   2.0138   2.5502   2.9661   3.2617
     3.6744   4.0342

          k = 0.3125 0.1083 0.0000 (  5488 PWs)   bands (ev):

    -7.6825  -7.4470  -7.0620  -6.5331  -5.8576  -5.0425  -4.0902  -3.0095
    -1.7656  -0.6592   0.7051   0.7669   2.0138   2.5502   2.9661   3.2617
     3.6744   4.0342

          k =-0.3125 0.2526 0.0000 (  5490 PWs)   bands (ev):

    -6.7434  -6.5095  -6.1270  -5.6016  -4.9307  -4.1221  -3.1793  -2.1149
    -0.9162   0.1220   0.5072   0.7870   1.2087   1.2562   1.7112   2.0427
     2.3843   3.1337

          k = 0.3750 0.1443 0.0000 (  5490 PWs)   bands (ev):

    -6.7434  -6.5095  -6.1270  -5.6016  -4.9307  -4.1221  -3.1793  -2.1149
    -0.9162   0.1220   0.5072   0.7870   1.2087   1.2562   1.7112   2.0427
     2.3843   3.1337

          k =-0.3750 0.2887 0.0000 (  5501 PWs)   bands (ev):

    -5.6248  -5.3927  -5.0137  -4.4934  -3.8300  -3.0344  -2.1206  -1.2768
    -1.1447  -0.9989  -0.7192  -0.1680   0.4508   0.7765   1.3463   1.4600
     1.7600   2.3052

          k = 0.4375 0.1804 0.0000 (  5501 PWs)   bands (ev):

    -5.6248  -5.3927  -5.0137  -4.4934  -3.8300  -3.0344  -2.1206  -1.2768
    -1.1447  -0.9989  -0.7192  -0.1680   0.4508   0.7765   1.3463   1.4600
     1.7600   2.3052

          k =-0.4375 0.3248 0.0000 (  5499 PWs)   bands (ev):

    -4.3316  -4.1027  -3.7296  -3.2224  -2.8809  -2.6644  -2.5420  -2.2740
    -1.8488  -1.7609  -1.2665  -0.7391  -0.1160   0.4446   0.7481   1.6080
     1.7754   2.0770

          k = 0.5000 0.2165 0.0000 (  5499 PWs)   bands (ev):

    -4.3316  -4.1027  -3.7296  -3.2224  -2.8809  -2.6644  -2.5420  -2.2740
    -1.8488  -1.7609  -1.2665  -0.7391  -0.1160   0.4446   0.7481   1.6080
     1.7754   2.0770

          k = 0.2500 0.0000 0.0000 (  5513 PWs)   bands (ev):

    -8.5330  -8.2962  -7.9091  -7.3772  -6.6978  -5.8780  -4.9195  -3.8305
    -2.5763  -1.4500   0.0255   0.1322   1.5024   2.9964   4.4103   5.5197
     6.1138   6.1892

          k =-0.1875 0.2526 0.0000 (  5487 PWs)   bands (ev):

    -7.8710  -7.6353  -7.2498  -6.7202  -6.0438  -5.2275  -4.2736  -3.1907
    -1.9429  -0.8321   0.5853   0.6209   2.0408   3.2824   3.8824   4.2395
     4.3992   4.8756

          k = 0.3125 0.0361 0.0000 (  5487 PWs)   bands (ev):

    -7.8710  -7.6353  -7.2498  -6.7202  -6.0438  -5.2275  -4.2736  -3.1907
    -1.9429  -0.8321   0.5853   0.6209   2.0408   3.2824   3.8824   4.2395
     4.3991   4.8756

          k =-0.2500 0.2887 0.0000 (  5494 PWs)   bands (ev):

    -7.0245  -6.7901  -6.4067  -5.8802  -5.2079  -4.3971  -3.4506  -2.3785
    -1.1516  -0.0605   1.1084   1.2064   1.6701   2.0250   2.4572   2.8920
     3.0825   3.5299

          k = 0.3750 0.0722 0.0000 (  5494 PWs)   bands (ev):

    -7.0245  -6.7901  -6.4067  -5.8802  -5.2079  -4.3971  -3.4506  -2.3785
    -1.1516  -0.0605   1.1084   1.2064   1.6701   2.0250   2.4572   2.8920
     3.0825   3.5299

          k =-0.3125 0.3248 0.0000 (  5496 PWs)   bands (ev):

    -5.9967  -5.7639  -5.3836  -4.8612  -4.1947  -3.3929  -2.4616  -1.4230
    -0.3737  -0.1787   0.0553   0.4846   0.9941   1.2277   1.6323   1.7002
     2.4359   2.5074

          k = 0.4375 0.1083 0.0000 (  5496 PWs)   bands (ev):

    -5.9967  -5.7639  -5.3836  -4.8612  -4.1947  -3.3929  -2.4616  -1.4230
    -0.3737  -0.1787   0.0553   0.4846   0.9941   1.2277   1.6323   1.7002
     2.4358   2.5074

          k =-0.3750 0.3608 0.0000 (  5491 PWs)   bands (ev):

    -4.7917  -4.5612  -4.1852  -3.6701  -3.0162  -2.2479  -1.8719  -1.6545
    -1.3784  -1.2811  -0.8725  -0.3048   0.2195   0.8242   1.1956   1.6832
     2.0440   2.1479

          k = 0.5000 0.1443 0.0000 (  5491 PWs)   bands (ev):

    -4.7917  -4.5612  -4.1852  -3.6701  -3.0162  -2.2479  -1.8719  -1.6545
    -1.3784  -1.2811  -0.8725  -0.3048   0.2195   0.8242   1.1956   1.6832
     2.0440   2.1479

          k =-0.4375 0.3969 0.0000 (  5460 PWs)   bands (ev):

    -3.4184  -3.4171  -3.1960  -3.1921  -2.8675  -2.7718  -2.3462  -2.2734
    -1.7386  -1.6508  -1.1307  -0.6343   0.1049   0.4045   1.1999   1.2803
     2.2050   2.3986

          k = 0.3750 0.0000 0.0000 (  5509 PWs)   bands (ev):

    -7.1183  -6.8837  -6.5002  -5.9734  -5.3005  -4.4888  -3.5411  -2.4671
    -1.2342  -0.1382   1.0573   1.2459   2.4019   2.8872   3.1105   3.3219
     3.5913   3.6626

          k =-0.2500 0.3608 0.0000 (  5493 PWs)   bands (ev):

    -6.1830  -5.9499  -5.5688  -5.0455  -4.3777  -3.5736  -2.6372  -1.5822
    -0.4022   0.6241   1.0298   1.2997   1.5618   1.7162   2.1636   2.2828
     2.4917   2.8182

          k = 0.4375 0.0361 0.0000 (  5493 PWs)   bands (ev):

    -6.1830  -5.9499  -5.5688  -5.0455  -4.3777  -3.5736  -2.6372  -1.5822
    -0.4022   0.6241   1.0298   1.2997   1.5618   1.7162   2.1636   2.2828
     2.4917   2.8182

          k =-0.3125 0.3969 0.0000 (  5470 PWs)   bands (ev):

    -5.0688  -4.8375  -4.4600  -3.9424  -3.2833  -2.4937  -1.5890  -0.7434
    -0.6170  -0.4692  -0.1917   0.3461   0.9215   1.2490   1.8183   1.8401
     2.0119   2.1358

          k = 0.5000 0.0722 0.0000 (  5470 PWs)   bands (ev):

    -5.0688  -4.8375  -4.4600  -3.9424  -3.2833  -2.4937  -1.5890  -0.7434
    -0.6170  -0.4692  -0.1917   0.3461   0.9215   1.2490   1.8183   1.8401
     2.0119   2.1358

          k =-0.3750 0.4330 0.0000 (  5454 PWs)   bands (ev):

    -3.7808  -3.5532  -3.1826  -2.6798  -2.3385  -2.1249  -1.9991  -1.7329
    -1.3185  -1.2257  -0.7423  -0.2186   0.3976   0.9148   1.2179   1.8072
     1.9332   2.0894

          k = 0.5625 0.1083 0.0000 (  5454 PWs)   bands (ev):

    -3.7808  -3.5532  -3.1826  -2.6798  -2.3385  -2.1249  -1.9991  -1.7329
    -1.3185  -1.2257  -0.7423  -0.2186   0.3976   0.9148   1.2179   1.8072
     1.9332   2.0894

          k = 0.5000 0.0000 0.0000 (  5491 PWs)   bands (ev):

    -5.1612  -4.9299  -4.5521  -4.0338  -3.3733  -2.5806  -1.6643  -0.6571
     0.3204   0.6069   0.6100   0.7285   0.8378   1.1047   1.4072   1.7690
     2.0246   2.0460

          k =-0.3125 0.4691 0.0000 (  5430 PWs)   bands (ev):

    -3.9636  -3.7349  -3.3622  -2.8524  -2.2071  -1.4529  -1.0639  -0.8493
    -0.6033  -0.4876  -0.0973   0.3294   0.4006   0.5448   0.7966   0.9955
     1.3927   1.5764

          k = 0.5625 0.0361 0.0000 (  5430 PWs)   bands (ev):

    -3.9636  -3.7349  -3.3622  -2.8524  -2.2071  -1.4529  -1.0639  -0.8493
    -0.6033  -0.4876  -0.0973   0.3294   0.4006   0.5448   0.7966   0.9955
     1.3927   1.5764

          k =-0.3750 0.5052 0.0000 (  5430 PWs)   bands (ev):

    -2.6007  -2.5992  -2.3817  -2.3768  -2.0610  -1.9556  -1.5433  -1.4646
    -0.9513  -0.8541  -0.3610   0.0949   0.2594   0.4593   0.7841   0.7979
     1.1161   1.1781

          k = 0.6250 0.0000 0.0000 (  5411 PWs)   bands (ev):

    -2.6886  -2.4648  -2.1015  -1.6148  -1.2720  -1.2515  -1.0765  -1.0333
    -0.9100  -0.7171  -0.6136  -0.3318  -0.1703  -0.1613   0.1511   0.4356
     0.8903   1.0391

     the Fermi energy is     1.4997 ev

!    total energy              =    -113.10784052 Ry
     Harris-Foulkes estimate   =    -113.10784384 Ry
     estimated scf accuracy    <       0.00000499 Ry

     The total energy is the sum of the following terms:

     one-electron contribution =   -1058.97123664 Ry
     hartree contribution      =     536.80868647 Ry
     xc contribution           =     -90.64257035 Ry
     ewald contribution        =     499.69588946 Ry
     smearing contrib. (-TS)   =       0.00139055 Ry

     convergence has been achieved in  28 iterations

     Forces acting on atoms (Ry/au):


     negative rho (up, down):  5.753E-06 0.000E+00
     atom    1 type  1   force =     0.00000000   -0.00000036   -0.00129109
     atom    2 type  1   force =     0.00000000   -0.00000033    0.00290718
     atom    3 type  1   force =     0.00000000    0.00000021   -0.00334317
     atom    4 type  1   force =     0.00000000    0.00000069   -0.00040936
     atom    5 type  1   force =     0.00000000    0.00000021   -0.00005475
     atom    6 type  1   force =     0.00000000   -0.00000012    0.00041821
     atom    7 type  1   force =     0.00000000   -0.00000011    0.00348301
     atom    8 type  1   force =     0.00000000    0.00000018   -0.00299144
     atom    9 type  1   force =     0.00000000    0.00000028    0.00140118
     atom   10 type  2   force =     0.00000000   -0.00000065   -0.00011976

     Total force =     0.006686     Total SCF correction =     0.002484
     SCF correction compared to forces is large: reduce conv_thr to get better values


     entering subroutine stress ...


     negative rho (up, down):  5.753E-06 0.000E+00
          total   stress  (Ry/bohr**3)                   (kbar)     P=  -10.26
  -0.00010671   0.00000000   0.00000000        -15.70      0.00      0.00
   0.00000000  -0.00010673  -0.00000000          0.00    -15.70     -0.00
   0.00000000  -0.00000000   0.00000425          0.00     -0.00      0.63


     BFGS Geometry Optimization

     number of scf cycles    =   1
     number of bfgs steps    =   0

     energy   new            =    -113.1078405207 Ry

     new trust radius        =       0.0034830120 bohr
     new conv_thr            =       0.0000090000 Ry


ATOMIC_POSITIONS (crystal)
Al       0.333333261   0.666666523   0.111094759
Al       0.666666564   0.333333229   0.055592345
Al       0.000000023   0.000000046  -0.000042313
Al       0.333333374   0.666666749   0.277772586
Al       0.666666622   0.333333345   0.222221524
Al      -0.000000013  -0.000000025   0.166671960
Al       0.333333288   0.666666577   0.444488516
Al       0.666666619   0.333333338   0.388851022
Al       0.000000030   0.000000060   0.333351067
H        0.833333230   0.666666530   0.666665154



     Writing output data file Al_111_3_3.save
     NEW-OLD atomic charge density approx. for the potential

     negative rho (up, down):  5.894E-06 0.000E+00

     total cpu time spent up to now is      411.6 secs

     per-process dynamical memory:   165.5 Mb

     Self-consistent Calculation

     iteration #  1     ecut=    30.00 Ry     beta=0.30
     Davidson diagonalization with overlap
     ethr =  1.00E-06,  avg # of iterations =  3.3

     negative rho (up, down):  2.087E-07 0.000E+00

     total cpu time spent up to now is      431.3 secs

     total energy              =    -113.10779330 Ry
     Harris-Foulkes estimate   =    -113.10820812 Ry
     estimated scf accuracy    <       0.02979095 Ry

     iteration #  2     ecut=    30.00 Ry     beta=0.30
     Davidson diagonalization with overlap
     ethr =  1.06E-04,  avg # of iterations =  1.0

     negative rho (up, down):  3.152E-08 0.000E+00

     total cpu time spent up to now is      443.7 secs

     total energy              =    -113.10787452 Ry
     Harris-Foulkes estimate   =    -113.10793521 Ry
     estimated scf accuracy    <       0.00396896 Ry

     iteration #  3     ecut=    30.00 Ry     beta=0.30
     Davidson diagonalization with overlap
     ethr =  1.42E-05,  avg # of iterations =  1.0

     total cpu time spent up to now is      456.0 secs

     total energy              =    -113.10787554 Ry
     Harris-Foulkes estimate   =    -113.10789809 Ry
     estimated scf accuracy    <       0.00044650 Ry

     iteration #  4     ecut=    30.00 Ry     beta=0.30
     Davidson diagonalization with overlap
     ethr =  1.59E-06,  avg # of iterations =  1.7

     total cpu time spent up to now is      469.3 secs

     total energy              =    -113.10788362 Ry
     Harris-Foulkes estimate   =    -113.10788500 Ry
     estimated scf accuracy    <       0.00006773 Ry

     iteration #  5     ecut=    30.00 Ry     beta=0.30
     Davidson diagonalization with overlap
     ethr =  2.42E-07,  avg # of iterations =  2.4

     total cpu time spent up to now is      485.0 secs

     total energy              =    -113.10788496 Ry
     Harris-Foulkes estimate   =    -113.10788663 Ry
     estimated scf accuracy    <       0.00001739 Ry

     iteration #  6     ecut=    30.00 Ry     beta=0.30
     Davidson diagonalization with overlap
     ethr =  6.21E-08,  avg # of iterations =  1.3

     negative rho (up, down):  1.560E-08 0.000E+00

     total cpu time spent up to now is      497.6 secs

     total energy              =    -113.10788467 Ry
     Harris-Foulkes estimate   =    -113.10788562 Ry
     estimated scf accuracy    <       0.00000937 Ry

     iteration #  7     ecut=    30.00 Ry     beta=0.30
     Davidson diagonalization with overlap
     ethr =  3.35E-08,  avg # of iterations =  1.7

     negative rho (up, down):  5.782E-06 0.000E+00

     total cpu time spent up to now is      509.7 secs

     End of self-consistent calculation

          k = 0.0000 0.0000 0.0000 (  5537 PWs)   bands (ev):

    -9.6784  -9.4399  -9.0492  -8.5107  -7.8282  -7.0066  -6.0416  -4.9446
    -3.6875  -2.5245  -1.0395  -0.7194   0.4649   2.0051   3.5120   4.8434
     5.7825   6.4119

          k = 0.0000 0.0722 0.0000 (  5524 PWs)   bands (ev):

    -9.5829  -9.3446  -8.9540  -8.4158  -7.7337  -6.9126  -5.9482  -4.8516
    -3.5944  -2.4348  -0.9498  -0.6457   0.5528   2.0911   3.5967   4.9287
     5.8713   6.5016

          k = 0.0000 0.1443 0.0000 (  5500 PWs)   bands (ev):

    -9.2968  -9.0589  -8.6690  -8.1317  -7.4508  -6.6311  -5.6683  -4.5735
    -3.3164  -2.1667  -0.6827  -0.4278   0.8151   2.3471   3.8453   5.1745
     6.1275   6.7580

          k = 0.0000 0.2165 0.0000 (  5496 PWs)   bands (ev):

    -8.8212  -8.5840  -8.1952  -7.6595  -6.9807  -6.1634  -5.2033  -4.1116
    -2.8559  -1.7212  -0.2415  -0.0756   1.2445   2.7547   4.2053   5.3932
     5.9656   6.0888

          k = 0.0000 0.2887 0.0000 (  5490 PWs)   bands (ev):

    -8.1580  -7.9217  -7.5346  -7.0012  -6.3253  -5.5116  -4.5559  -3.4695
    -2.2188  -1.1017   0.3598   0.3904   1.7944   3.0482   3.6525   4.0235
     4.1686   4.6613

          k = 0.0000 0.3608 0.0000 (  5482 PWs)   bands (ev):

    -7.3097  -7.0748  -6.6899  -6.1595  -5.4875  -4.6789  -3.7302  -2.6542
    -1.4219  -0.3261   0.9322   0.9499   1.4071   1.7659   2.2065   2.6439
     2.8811   3.3189

          k = 0.0000 0.4330 0.0000 (  5488 PWs)   bands (ev):

    -6.2799  -6.0467  -5.6644  -5.1382  -4.4722  -3.6720  -2.7373  -1.6931
    -0.6382  -0.4493  -0.2112   0.2239   0.7379   0.9580   1.4422   1.4799
     2.1891   2.3075

          k = 0.0000 0.5052 0.0000 (  5504 PWs)   bands (ev):

    -5.0726  -4.8416  -4.4636  -3.9440  -3.2894  -2.5211  -2.1465  -1.9284
    -1.6476  -1.5534  -1.1380  -0.5693  -0.0457   0.5598   0.9554   1.4342
     1.9034   1.9154

          k = 0.0000-0.5774 0.0000 (  5484 PWs)   bands (ev):

    -3.6965  -3.6950  -3.4729  -3.4686  -3.1404  -3.0491  -2.6162  -2.5458
    -2.0078  -1.9204  -1.3992  -0.9051  -0.1616   0.1388   0.9463   1.0362
     2.1972   2.2251

          k = 0.0625 0.1083 0.0000 (  5511 PWs)   bands (ev):

    -9.3921  -9.1541  -8.7640  -8.2264  -7.5451  -6.7249  -5.7615  -4.6661
    -3.4088  -2.2559  -0.7715  -0.4999   0.7282   2.2626   3.7640   5.0953
     6.0453   6.6770

          k = 0.0625 0.1804 0.0000 (  5519 PWs)   bands (ev):

    -9.0113  -8.7738  -8.3845  -7.8482  -7.1686  -6.3504  -5.3892  -4.2959
    -3.0394  -1.8991  -0.4171  -0.2147   1.0747   2.5970   4.0805   5.3919
     6.3386   6.9248

          k = 0.0625 0.2526 0.0000 (  5496 PWs)   bands (ev):

    -8.4419  -8.2052  -7.8174  -7.2830  -6.6057  -5.7904  -4.8327  -3.7439
    -2.4903  -1.3663   0.1063   0.1953   1.5758   3.0419   4.2814   4.9236
     5.0698   5.3424

          k = 0.0625 0.3248 0.0000 (  5488 PWs)   bands (ev):

    -7.6861  -7.4506  -7.0646  -6.5329  -5.8591  -5.0481  -4.0959  -3.0145
    -1.7706  -0.6640   0.7018   0.7623   2.0094   2.5461   2.9630   3.2588
     3.6744   4.0289

          k = 0.0625 0.3969 0.0000 (  5490 PWs)   bands (ev):

    -6.7470  -6.5130  -6.1296  -5.6013  -4.9323  -4.1277  -3.1850  -2.1199
    -0.9210   0.1175   0.5035   0.7832   1.2053   1.2527   1.7106   2.0395
     2.3825   3.1280

          k = 0.0625 0.4691 0.0000 (  5501 PWs)   bands (ev):

    -5.6284  -5.3963  -5.0163  -4.4932  -3.8316  -3.0399  -2.1262  -1.2809
    -1.1484  -1.0030  -0.7218  -0.1690   0.4478   0.7737   1.3412   1.4549
     1.7563   2.2995

          k = 0.0625 0.5413 0.0000 (  5499 PWs)   bands (ev):

    -4.3352  -4.1063  -3.7322  -3.2222  -2.8845  -2.6675  -2.5437  -2.2767
    -1.8518  -1.7632  -1.2692  -0.7438  -0.1218   0.4397   0.7425   1.6031
     1.7704   2.0733

          k = 0.1250 0.2165 0.0000 (  5513 PWs)   bands (ev):

    -8.5366  -8.2998  -7.9117  -7.3770  -6.6994  -5.8836  -4.9252  -3.8355
    -2.5813  -1.4549   0.0208   0.1290   1.4976   2.9907   4.4037   5.5147
     6.1088   6.1856

          k = 0.1250 0.2887 0.0000 (  5487 PWs)   bands (ev):

    -7.8746  -7.6388  -7.2524  -6.7201  -6.0454  -5.2331  -4.2793  -3.1957
    -1.9478  -0.8370   0.5819   0.6162   2.0361   3.2775   3.8788   4.2353
     4.3967   4.8754

          k = 0.1250 0.3608 0.0000 (  5494 PWs)   bands (ev):

    -7.0281  -6.7936  -6.4094  -5.8800  -5.2094  -4.4026  -3.4563  -2.3835
    -1.1565  -0.0653   1.1050   1.2021   1.6663   2.0211   2.4550   2.8912
     3.0791   3.5280

          k = 0.1250 0.4330 0.0000 (  5496 PWs)   bands (ev):

    -6.0003  -5.7675  -5.3862  -4.8610  -4.1962  -3.3984  -2.4673  -1.4279
    -0.3781  -0.1823   0.0518   0.4817   0.9912   1.2254   1.6287   1.6986
     2.4306   2.5026

          k = 0.1250 0.5052 0.0000 (  5491 PWs)   bands (ev):

    -4.7953  -4.5647  -4.1878  -3.6698  -3.0177  -2.2531  -1.8757  -1.6581
    -1.3821  -1.2854  -0.8731  -0.3076   0.2160   0.8188   1.1908   1.6777
     2.0403   2.1431

          k = 0.1250 0.5774 0.0000 (  5460 PWs)   bands (ev):

    -3.4221  -3.4206  -3.1997  -3.1954  -2.8704  -2.7743  -2.3458  -2.2731
    -1.7408  -1.6518  -1.1363  -0.6399   0.0985   0.3994   1.1949   1.2755
     2.3917   2.3943

          k = 0.1875 0.3248 0.0000 (  5509 PWs)   bands (ev):

    -7.1219  -6.8873  -6.5028  -5.9732  -5.3021  -4.4944  -3.5468  -2.4721
    -1.2391  -0.1430   1.0538   1.2413   2.3975   2.8831   3.1068   3.3189
     3.5886   3.6590

          k = 0.1875 0.3969 0.0000 (  5493 PWs)   bands (ev):

    -6.1866  -5.9534  -5.5714  -5.0453  -4.3793  -3.5792  -2.6429  -1.5872
    -0.4070   0.6196   1.0262   1.2960   1.5582   1.7127   2.1606   2.2819
     2.4878   2.8155

          k = 0.1875 0.4691 0.0000 (  5470 PWs)   bands (ev):

    -5.0724  -4.8411  -4.4626  -3.9422  -3.2848  -2.4992  -1.5945  -0.7476
    -0.6207  -0.4733  -0.1943   0.3450   0.9184   1.2465   1.8138   1.8355
     2.0082   2.1317

          k = 0.1875 0.5413 0.0000 (  5454 PWs)   bands (ev):

    -3.7844  -3.5568  -3.1852  -2.6797  -2.3421  -2.1279  -2.0008  -1.7356
    -1.3215  -1.2279  -0.7450  -0.2232   0.3918   0.9101   1.2126   1.8028
     1.9291   2.0860

          k = 0.2500 0.4330 0.0000 (  5491 PWs)   bands (ev):

    -5.1649  -4.9335  -4.5547  -4.0335  -3.3748  -2.5860  -1.6699  -0.6619
     0.3161   0.6032   0.6064   0.7249   0.8347   1.1018   1.4049   1.7687
     2.0201   2.0454

          k = 0.2500 0.5052 0.0000 (  5430 PWs)   bands (ev):

    -3.9672  -3.7385  -3.3648  -2.8522  -2.2085  -1.4580  -1.0677  -0.8529
    -0.6073  -0.4917  -0.0979   0.3256   0.3978   0.5415   0.7933   0.9930
     1.3909   1.5722

          k = 0.2500 0.5774 0.0000 (  5430 PWs)   bands (ev):

    -2.6044  -2.6027  -2.3854  -2.3801  -2.0639  -1.9581  -1.5429  -1.4643
    -0.9536  -0.8549  -0.3664   0.0903   0.2551   0.4558   0.7813   0.7918
     1.1111   1.1771

          k = 0.3125 0.5413 0.0000 (  5411 PWs)   bands (ev):

    -2.6922  -2.4683  -2.1041  -1.6148  -1.2757  -1.2549  -1.0792  -1.0367
    -0.9120  -0.7200  -0.6161  -0.3345  -0.1725  -0.1614   0.1485   0.4341
     0.8849   1.0332

          k =-0.0625 0.0361 0.0000 (  5524 PWs)   bands (ev):

    -9.5829  -9.3446  -8.9540  -8.4158  -7.7337  -6.9126  -5.9482  -4.8516
    -3.5944  -2.4348  -0.9498  -0.6457   0.5528   2.0911   3.5967   4.9287
     5.8713   6.5016

          k =-0.1250 0.0722 0.0000 (  5500 PWs)   bands (ev):

    -9.2968  -9.0589  -8.6690  -8.1317  -7.4508  -6.6311  -5.6683  -4.5735
    -3.3164  -2.1667  -0.6827  -0.4278   0.8151   2.3471   3.8453   5.1745
     6.1275   6.7580

          k =-0.1875 0.1083 0.0000 (  5496 PWs)   bands (ev):

    -8.8212  -8.5840  -8.1952  -7.6595  -6.9807  -6.1634  -5.2033  -4.1116
    -2.8559  -1.7212  -0.2415  -0.0756   1.2445   2.7547   4.2053   5.3932
     5.9656   6.0887

          k =-0.2500 0.1443 0.0000 (  5490 PWs)   bands (ev):

    -8.1580  -7.9217  -7.5346  -7.0012  -6.3253  -5.5116  -4.5559  -3.4695
    -2.2188  -1.1017   0.3597   0.3904   1.7944   3.0482   3.6525   4.0235
     4.1686   4.6613

          k =-0.3125 0.1804 0.0000 (  5482 PWs)   bands (ev):

    -7.3097  -7.0748  -6.6899  -6.1595  -5.4875  -4.6789  -3.7302  -2.6542
    -1.4219  -0.3261   0.9322   0.9499   1.4071   1.7659   2.2065   2.6439
     2.8811   3.3189

          k =-0.3750 0.2165 0.0000 (  5488 PWs)   bands (ev):

    -6.2799  -6.0467  -5.6644  -5.1382  -4.4722  -3.6720  -2.7373  -1.6931
    -0.6382  -0.4493  -0.2112   0.2239   0.7379   0.9580   1.4422   1.4799
     2.1891   2.3075

          k =-0.4375 0.2526 0.0000 (  5504 PWs)   bands (ev):

    -5.0726  -4.8416  -4.4636  -3.9440  -3.2894  -2.5211  -2.1465  -1.9284
    -1.6476  -1.5534  -1.1380  -0.5693  -0.0457   0.5598   0.9554   1.4342
     1.9034   1.9154

          k = 0.5000-0.2887 0.0000 (  5484 PWs)   bands (ev):

    -3.6965  -3.6950  -3.4729  -3.4686  -3.1404  -3.0491  -2.6162  -2.5458
    -2.0078  -1.9204  -1.3992  -0.9051  -0.1616   0.1388   0.9463   1.0362
     2.0873   2.1972

          k = 0.1250 0.0000 0.0000 (  5511 PWs)   bands (ev):

    -9.3921  -9.1541  -8.7640  -8.2264  -7.5451  -6.7249  -5.7615  -4.6661
    -3.4088  -2.2559  -0.7715  -0.4999   0.7282   2.2626   3.7640   5.0953
     6.0453   6.6770

          k =-0.1250 0.1443 0.0000 (  5519 PWs)   bands (ev):

    -9.0113  -8.7738  -8.3845  -7.8482  -7.1686  -6.3504  -5.3892  -4.2959
    -3.0394  -1.8991  -0.4171  -0.2147   1.0747   2.5970   4.0805   5.3919
     6.3386   6.9248

          k = 0.1875 0.0361 0.0000 (  5519 PWs)   bands (ev):

    -9.0113  -8.7738  -8.3845  -7.8482  -7.1686  -6.3504  -5.3892  -4.2959
    -3.0394  -1.8991  -0.4171  -0.2147   1.0747   2.5970   4.0805   5.3919
     6.3386   6.9248

          k =-0.1875 0.1804 0.0000 (  5496 PWs)   bands (ev):

    -8.4419  -8.2052  -7.8174  -7.2830  -6.6057  -5.7904  -4.8327  -3.7439
    -2.4903  -1.3663   0.1063   0.1953   1.5758   3.0419   4.2814   4.9236
     5.0698   5.3424

          k = 0.2500 0.0722 0.0000 (  5496 PWs)   bands (ev):

    -8.4419  -8.2052  -7.8174  -7.2830  -6.6057  -5.7904  -4.8327  -3.7439
    -2.4903  -1.3663   0.1063   0.1953   1.5758   3.0419   4.2814   4.9236
     5.0698   5.3425

          k =-0.2500 0.2165 0.0000 (  5488 PWs)   bands (ev):

    -7.6861  -7.4506  -7.0646  -6.5329  -5.8591  -5.0481  -4.0959  -3.0145
    -1.7706  -0.6640   0.7018   0.7623   2.0094   2.5461   2.9630   3.2588
     3.6744   4.0289

          k = 0.3125 0.1083 0.0000 (  5488 PWs)   bands (ev):

    -7.6861  -7.4506  -7.0646  -6.5329  -5.8591  -5.0481  -4.0959  -3.0145
    -1.7706  -0.6640   0.7018   0.7623   2.0094   2.5461   2.9630   3.2588
     3.6744   4.0289

          k =-0.3125 0.2526 0.0000 (  5490 PWs)   bands (ev):

    -6.7470  -6.5130  -6.1296  -5.6013  -4.9323  -4.1277  -3.1850  -2.1199
    -0.9210   0.1175   0.5035   0.7832   1.2053   1.2527   1.7106   2.0395
     2.3825   3.1280

          k = 0.3750 0.1443 0.0000 (  5490 PWs)   bands (ev):

    -6.7470  -6.5130  -6.1296  -5.6013  -4.9323  -4.1277  -3.1850  -2.1199
    -0.9210   0.1175   0.5035   0.7832   1.2053   1.2527   1.7106   2.0395
     2.3825   3.1280

          k =-0.3750 0.2887 0.0000 (  5501 PWs)   bands (ev):

    -5.6284  -5.3963  -5.0163  -4.4932  -3.8316  -3.0399  -2.1262  -1.2809
    -1.1484  -1.0030  -0.7218  -0.1690   0.4478   0.7737   1.3412   1.4549
     1.7563   2.2995

          k = 0.4375 0.1804 0.0000 (  5501 PWs)   bands (ev):

    -5.6284  -5.3963  -5.0163  -4.4932  -3.8316  -3.0399  -2.1262  -1.2809
    -1.1484  -1.0030  -0.7218  -0.1690   0.4478   0.7737   1.3412   1.4549
     1.7563   2.2995

          k =-0.4375 0.3248 0.0000 (  5499 PWs)   bands (ev):

    -4.3352  -4.1063  -3.7322  -3.2222  -2.8845  -2.6675  -2.5437  -2.2767
    -1.8518  -1.7632  -1.2692  -0.7438  -0.1218   0.4397   0.7425   1.6031
     1.7704   2.0733

          k = 0.5000 0.2165 0.0000 (  5499 PWs)   bands (ev):

    -4.3352  -4.1063  -3.7322  -3.2222  -2.8845  -2.6675  -2.5437  -2.2767
    -1.8518  -1.7632  -1.2692  -0.7438  -0.1218   0.4397   0.7425   1.6031
     1.7704   2.0733

          k = 0.2500 0.0000 0.0000 (  5513 PWs)   bands (ev):

    -8.5366  -8.2998  -7.9117  -7.3770  -6.6994  -5.8836  -4.9252  -3.8355
    -2.5813  -1.4549   0.0208   0.1290   1.4976   2.9907   4.4037   5.5147
     6.1088   6.1856

          k =-0.1875 0.2526 0.0000 (  5487 PWs)   bands (ev):

    -7.8746  -7.6388  -7.2524  -6.7201  -6.0454  -5.2331  -4.2793  -3.1957
    -1.9478  -0.8370   0.5819   0.6162   2.0361   3.2775   3.8788   4.2353
     4.3967   4.8754

          k = 0.3125 0.0361 0.0000 (  5487 PWs)   bands (ev):

    -7.8746  -7.6388  -7.2524  -6.7201  -6.0454  -5.2331  -4.2793  -3.1957
    -1.9478  -0.8370   0.5819   0.6162   2.0361   3.2775   3.8788   4.2353
     4.3967   4.8754

          k =-0.2500 0.2887 0.0000 (  5494 PWs)   bands (ev):

    -7.0281  -6.7936  -6.4094  -5.8800  -5.2094  -4.4026  -3.4563  -2.3835
    -1.1565  -0.0653   1.1050   1.2021   1.6663   2.0211   2.4550   2.8912
     3.0791   3.5280

          k = 0.3750 0.0722 0.0000 (  5494 PWs)   bands (ev):

    -7.0281  -6.7936  -6.4094  -5.8800  -5.2094  -4.4026  -3.4563  -2.3835
    -1.1565  -0.0653   1.1050   1.2021   1.6663   2.0211   2.4550   2.8912
     3.0791   3.5280

          k =-0.3125 0.3248 0.0000 (  5496 PWs)   bands (ev):

    -6.0003  -5.7675  -5.3862  -4.8610  -4.1962  -3.3984  -2.4673  -1.4279
    -0.3781  -0.1823   0.0518   0.4817   0.9912   1.2254   1.6287   1.6986
     2.4306   2.5026

          k = 0.4375 0.1083 0.0000 (  5496 PWs)   bands (ev):

    -6.0003  -5.7675  -5.3862  -4.8610  -4.1962  -3.3984  -2.4673  -1.4279
    -0.3781  -0.1823   0.0518   0.4817   0.9912   1.2254   1.6287   1.6986
     2.4306   2.5026

          k =-0.3750 0.3608 0.0000 (  5491 PWs)   bands (ev):

    -4.7953  -4.5647  -4.1878  -3.6698  -3.0177  -2.2531  -1.8757  -1.6581
    -1.3821  -1.2854  -0.8731  -0.3076   0.2160   0.8188   1.1908   1.6777
     2.0403   2.1431

          k = 0.5000 0.1443 0.0000 (  5491 PWs)   bands (ev):

    -4.7953  -4.5647  -4.1878  -3.6698  -3.0177  -2.2531  -1.8757  -1.6581
    -1.3821  -1.2854  -0.8731  -0.3076   0.2160   0.8188   1.1908   1.6777
     2.0403   2.1431

          k =-0.4375 0.3969 0.0000 (  5460 PWs)   bands (ev):

    -3.4221  -3.4206  -3.1997  -3.1954  -2.8704  -2.7743  -2.3458  -2.2731
    -1.7408  -1.6518  -1.1363  -0.6399   0.0985   0.3994   1.1949   1.2755
     2.2012   2.3943

          k = 0.3750 0.0000 0.0000 (  5509 PWs)   bands (ev):

    -7.1219  -6.8873  -6.5028  -5.9732  -5.3021  -4.4944  -3.5468  -2.4721
    -1.2391  -0.1430   1.0538   1.2413   2.3975   2.8831   3.1068   3.3189
     3.5886   3.6590

          k =-0.2500 0.3608 0.0000 (  5493 PWs)   bands (ev):

    -6.1866  -5.9534  -5.5714  -5.0453  -4.3793  -3.5792  -2.6429  -1.5872
    -0.4070   0.6196   1.0262   1.2960   1.5582   1.7127   2.1606   2.2819
     2.4878   2.8155

          k = 0.4375 0.0361 0.0000 (  5493 PWs)   bands (ev):

    -6.1866  -5.9534  -5.5714  -5.0453  -4.3793  -3.5792  -2.6429  -1.5872
    -0.4070   0.6196   1.0262   1.2960   1.5582   1.7127   2.1606   2.2819
     2.4878   2.8155

          k =-0.3125 0.3969 0.0000 (  5470 PWs)   bands (ev):

    -5.0724  -4.8411  -4.4626  -3.9422  -3.2848  -2.4992  -1.5945  -0.7476
    -0.6207  -0.4733  -0.1943   0.3450   0.9184   1.2465   1.8138   1.8355
     2.0082   2.1317

          k = 0.5000 0.0722 0.0000 (  5470 PWs)   bands (ev):

    -5.0724  -4.8411  -4.4626  -3.9422  -3.2848  -2.4992  -1.5945  -0.7476
    -0.6207  -0.4733  -0.1943   0.3450   0.9184   1.2465   1.8138   1.8355
     2.0082   2.1317

          k =-0.3750 0.4330 0.0000 (  5454 PWs)   bands (ev):

    -3.7844  -3.5568  -3.1852  -2.6797  -2.3421  -2.1279  -2.0008  -1.7356
    -1.3215  -1.2279  -0.7450  -0.2232   0.3918   0.9101   1.2126   1.8028
     1.9291   2.0860

          k = 0.5625 0.1083 0.0000 (  5454 PWs)   bands (ev):

    -3.7844  -3.5568  -3.1852  -2.6797  -2.3421  -2.1279  -2.0008  -1.7356
    -1.3215  -1.2279  -0.7450  -0.2232   0.3918   0.9101   1.2126   1.8028
     1.9291   2.0861

          k = 0.5000 0.0000 0.0000 (  5491 PWs)   bands (ev):

    -5.1649  -4.9335  -4.5547  -4.0335  -3.3748  -2.5860  -1.6699  -0.6619
     0.3161   0.6032   0.6064   0.7249   0.8347   1.1018   1.4049   1.7687
     2.0201   2.0454

          k =-0.3125 0.4691 0.0000 (  5430 PWs)   bands (ev):

    -3.9672  -3.7385  -3.3648  -2.8522  -2.2085  -1.4580  -1.0677  -0.8529
    -0.6073  -0.4917  -0.0979   0.3256   0.3978   0.5415   0.7933   0.9930
     1.3909   1.5722

          k = 0.5625 0.0361 0.0000 (  5430 PWs)   bands (ev):

    -3.9672  -3.7385  -3.3648  -2.8522  -2.2085  -1.4580  -1.0677  -0.8529
    -0.6073  -0.4917  -0.0979   0.3256   0.3978   0.5415   0.7933   0.9930
     1.3909   1.5722

          k =-0.3750 0.5052 0.0000 (  5430 PWs)   bands (ev):

    -2.6044  -2.6027  -2.3854  -2.3801  -2.0639  -1.9581  -1.5429  -1.4643
    -0.9536  -0.8549  -0.3664   0.0903   0.2551   0.4558   0.7813   0.7918
     1.1111   1.1771

          k = 0.6250 0.0000 0.0000 (  5411 PWs)   bands (ev):

    -2.6922  -2.4683  -2.1041  -1.6148  -1.2757  -1.2549  -1.0792  -1.0367
    -0.9120  -0.7200  -0.6161  -0.3345  -0.1725  -0.1614   0.1485   0.4341
     0.8849   1.0332

     the Fermi energy is     1.4959 ev

!    total energy              =    -113.10788061 Ry
     Harris-Foulkes estimate   =    -113.10788495 Ry
     estimated scf accuracy    <       0.00000662 Ry

     The total energy is the sum of the following terms:

     one-electron contribution =   -1058.84462237 Ry
     hartree contribution      =     536.74256271 Ry
     xc contribution           =     -90.64192223 Ry
     ewald contribution        =     499.63471358 Ry
     smearing contrib. (-TS)   =       0.00138768 Ry

     convergence has been achieved in   7 iterations

     Forces acting on atoms (Ry/au):


     negative rho (up, down):  5.782E-06 0.000E+00
     atom    1 type  1   force =     0.00000000   -0.00000010   -0.00097062
     atom    2 type  1   force =     0.00000000    0.00000005    0.00231657
     atom    3 type  1   force =     0.00000000    0.00000003   -0.00298284
     atom    4 type  1   force =     0.00000000   -0.00000005   -0.00031603
     atom    5 type  1   force =     0.00000000    0.00000006   -0.00004797
     atom    6 type  1   force =     0.00000000    0.00000017    0.00029701
     atom    7 type  1   force =     0.00000000   -0.00000004    0.00308374
     atom    8 type  1   force =     0.00000000   -0.00000018   -0.00232320
     atom    9 type  1   force =     0.00000000    0.00000008    0.00103202
     atom   10 type  2   force =     0.00000000   -0.00000001   -0.00008867

     Total force =     0.005601     Total SCF correction =     0.003740
     SCF correction compared to forces is large: reduce conv_thr to get better values


     entering subroutine stress ...


     negative rho (up, down):  5.782E-06 0.000E+00
          total   stress  (Ry/bohr**3)                   (kbar)     P=  -10.31
  -0.00010701  -0.00000000   0.00000000        -15.74     -0.00      0.00
  -0.00000000  -0.00010701   0.00000000         -0.00    -15.74      0.00
   0.00000000   0.00000000   0.00000369          0.00      0.00      0.54


     number of scf cycles    =   2
     number of bfgs steps    =   1

     energy   old            =    -113.1078405207 Ry
     energy   new            =    -113.1078806139 Ry

     CASE: energy  _new < energy  _old


     WARNING: bfgs curvature condition failed, Theta= 0.957
     new trust radius        =       0.0038313132 bohr
     new conv_thr            =       0.0000000900 Ry


ATOMIC_POSITIONS (crystal)
Al       0.333333246   0.666666492   0.111079333
Al       0.666666568   0.333333236   0.055629016
Al       0.000000029   0.000000057  -0.000089196
Al       0.333333373   0.666666745   0.277767572
Al       0.666666631   0.333333363   0.222220769
Al       0.000000007   0.000000014   0.166676699
Al       0.333333282   0.666666564   0.444537007
Al       0.666666597   0.333333295   0.388814182
Al       0.000000042   0.000000084   0.333367493
H        0.833333225   0.666666519   0.666663743



     Writing output data file Al_111_3_3.save
     NEW-OLD atomic charge density approx. for the potential

     negative rho (up, down):  5.914E-06 0.000E+00

     total cpu time spent up to now is      518.6 secs

     per-process dynamical memory:   165.5 Mb

     Self-consistent Calculation

     iteration #  1     ecut=    30.00 Ry     beta=0.30
     Davidson diagonalization with overlap
     ethr =  1.00E-06,  avg # of iterations =  3.7

     negative rho (up, down):  1.289E-07 0.000E+00

     total cpu time spent up to now is      539.7 secs

     total energy              =    -113.10786717 Ry
     Harris-Foulkes estimate   =    -113.10827262 Ry
     estimated scf accuracy    <       0.03072858 Ry

     iteration #  2     ecut=    30.00 Ry     beta=0.30
     Davidson diagonalization with overlap
     ethr =  1.10E-04,  avg # of iterations =  1.0

     negative rho (up, down):  1.236E-08 0.000E+00

     total cpu time spent up to now is      552.7 secs

     total energy              =    -113.10790763 Ry
     Harris-Foulkes estimate   =    -113.10799771 Ry
     estimated scf accuracy    <       0.00539575 Ry

     iteration #  3     ecut=    30.00 Ry     beta=0.30
     Davidson diagonalization with overlap
     ethr =  1.93E-05,  avg # of iterations =  1.0

     total cpu time spent up to now is      566.9 secs

     total energy              =    -113.10788527 Ry
     Harris-Foulkes estimate   =    -113.10793779 Ry
     estimated scf accuracy    <       0.00092991 Ry

     iteration #  4     ecut=    30.00 Ry     beta=0.30
     Davidson diagonalization with overlap
     ethr =  3.32E-06,  avg # of iterations =  2.0

     total cpu time spent up to now is      580.9 secs

     total energy              =    -113.10791577 Ry
     Harris-Foulkes estimate   =    -113.10791706 Ry
     estimated scf accuracy    <       0.00005349 Ry

     iteration #  5     ecut=    30.00 Ry     beta=0.30
     Davidson diagonalization with overlap
     ethr =  1.91E-07,  avg # of iterations =  2.7

     total cpu time spent up to now is      595.7 secs

     total energy              =    -113.10792237 Ry
     Harris-Foulkes estimate   =    -113.10792297 Ry
     estimated scf accuracy    <       0.00002453 Ry

     iteration #  6     ecut=    30.00 Ry     beta=0.30
     Davidson diagonalization with overlap
     ethr =  8.76E-08,  avg # of iterations =  1.0

     negative rho (up, down):  7.651E-08 0.000E+00

     total cpu time spent up to now is      608.2 secs

     total energy              =    -113.10791755 Ry
     Harris-Foulkes estimate   =    -113.10792256 Ry
     estimated scf accuracy    <       0.00002001 Ry

     iteration #  7     ecut=    30.00 Ry     beta=0.30
     Davidson diagonalization with overlap
     ethr =  7.15E-08,  avg # of iterations =  2.9

     negative rho (up, down):  9.005E-08 0.000E+00

     total cpu time spent up to now is      624.3 secs

     total energy              =    -113.10792793 Ry
     Harris-Foulkes estimate   =    -113.10792724 Ry
     estimated scf accuracy    <       0.00019015 Ry

     iteration #  8     ecut=    30.00 Ry     beta=0.30
     Davidson diagonalization with overlap
     ethr =  7.15E-08,  avg # of iterations =  1.0

     negative rho (up, down):  1.059E-08 0.000E+00

     total cpu time spent up to now is      636.5 secs

     total energy              =    -113.10792116 Ry
     Harris-Foulkes estimate   =    -113.10792796 Ry
     estimated scf accuracy    <       0.00020397 Ry

     iteration #  9     ecut=    30.00 Ry     beta=0.30
     Davidson diagonalization with overlap
     ethr =  7.15E-08,  avg # of iterations =  1.7

     negative rho (up, down):  4.694E-08 0.000E+00

     total cpu time spent up to now is      650.0 secs

     total energy              =    -113.10791569 Ry
     Harris-Foulkes estimate   =    -113.10792262 Ry
     estimated scf accuracy    <       0.00006124 Ry

     iteration # 10     ecut=    30.00 Ry     beta=0.30
     Davidson diagonalization with overlap
     ethr =  7.15E-08,  avg # of iterations =  2.7

     negative rho (up, down):  9.002E-08 0.000E+00

     total cpu time spent up to now is      665.5 secs

     total energy              =    -113.10792239 Ry
     Harris-Foulkes estimate   =    -113.10792330 Ry
     estimated scf accuracy    <       0.00005490 Ry

     iteration # 11     ecut=    30.00 Ry     beta=0.30
     Davidson diagonalization with overlap
     ethr =  7.15E-08,  avg # of iterations =  1.1

     negative rho (up, down):  3.991E-07 0.000E+00

     total cpu time spent up to now is      678.4 secs

     total energy              =    -113.10791974 Ry
     Harris-Foulkes estimate   =    -113.10792263 Ry
     estimated scf accuracy    <       0.00002900 Ry

     iteration # 12     ecut=    30.00 Ry     beta=0.30
     Davidson diagonalization with overlap
     ethr =  7.15E-08,  avg # of iterations =  2.3

     negative rho (up, down):  3.815E-07 0.000E+00

     total cpu time spent up to now is      692.7 secs

     total energy              =    -113.10792183 Ry
     Harris-Foulkes estimate   =    -113.10792244 Ry
     estimated scf accuracy    <       0.00001283 Ry

     iteration # 13     ecut=    30.00 Ry     beta=0.30
     Davidson diagonalization with overlap
     ethr =  4.58E-08,  avg # of iterations =  1.0

     negative rho (up, down):  2.453E-06 0.000E+00

     total cpu time spent up to now is      705.3 secs

     total energy              =    -113.10792180 Ry
     Harris-Foulkes estimate   =    -113.10792200 Ry
     estimated scf accuracy    <       0.00000278 Ry

     iteration # 14     ecut=    30.00 Ry     beta=0.30
     Davidson diagonalization with overlap
     ethr =  9.91E-09,  avg # of iterations =  2.4

     negative rho (up, down):  6.394E-06 0.000E+00

     total cpu time spent up to now is      719.4 secs

     total energy              =    -113.10792203 Ry
     Harris-Foulkes estimate   =    -113.10792204 Ry
     estimated scf accuracy    <       0.00000055 Ry

     iteration # 15     ecut=    30.00 Ry     beta=0.30
     Davidson diagonalization with overlap
     ethr =  1.95E-09,  avg # of iterations =  1.1

     negative rho (up, down):  6.019E-06 0.000E+00

     total cpu time spent up to now is      731.9 secs

     total energy              =    -113.10792202 Ry
     Harris-Foulkes estimate   =    -113.10792203 Ry
     estimated scf accuracy    <       0.00000027 Ry

     iteration # 16     ecut=    30.00 Ry     beta=0.30
     Davidson diagonalization with overlap
     ethr =  9.55E-10,  avg # of iterations =  1.2

     negative rho (up, down):  5.830E-06 0.000E+00

     total cpu time spent up to now is      744.1 secs

     End of self-consistent calculation

          k = 0.0000 0.0000 0.0000 (  5537 PWs)   bands (ev):

    -9.6734  -9.4356  -9.0427  -8.5013  -7.8206  -7.0031  -6.0385  -4.9408
    -3.6836  -2.5206  -1.0355  -0.7137   0.4685   2.0073   3.5127   4.8485
     5.8017   6.4481

          k = 0.0000 0.0722 0.0000 (  5524 PWs)   bands (ev):

    -9.5780  -9.3402  -8.9476  -8.4064  -7.7262  -6.9092  -5.9450  -4.8478
    -3.5906  -2.4308  -0.9458  -0.6400   0.5564   2.0933   3.5974   4.9337
     5.8902   6.5377

          k = 0.0000 0.1443 0.0000 (  5500 PWs)   bands (ev):

    -9.2919  -9.0545  -8.6626  -8.1223  -7.4432  -6.6277  -5.6651  -4.5697
    -3.3125  -2.1628  -0.6787  -0.4220   0.8187   2.3494   3.8461   5.1793
     6.1452   6.7936

          k = 0.0000 0.2165 0.0000 (  5496 PWs)   bands (ev):

    -8.8163  -8.5796  -8.1888  -7.6500  -6.9731  -6.1599  -5.2001  -4.1078
    -2.8520  -1.7173  -0.2375  -0.0698   1.2481   2.7571   4.2066   5.3972
     5.9700   6.0951

          k = 0.0000 0.2887 0.0000 (  5490 PWs)   bands (ev):

    -8.1531  -7.9173  -7.5282  -6.9917  -6.3177  -5.5081  -4.5527  -3.4657
    -2.2149  -1.0978   0.3638   0.3963   1.7981   3.0517   3.6572   4.0272
     4.1752   4.6706

          k = 0.0000 0.3608 0.0000 (  5482 PWs)   bands (ev):

    -7.3048  -7.0704  -6.6834  -6.1500  -5.4798  -4.6754  -3.7269  -2.6504
    -1.4179  -0.3221   0.9382   0.9542   1.4116   1.7703   2.2133   2.6521
     2.8867   3.3258

          k = 0.0000 0.4330 0.0000 (  5488 PWs)   bands (ev):

    -6.2750  -6.0423  -5.6580  -5.1287  -4.4645  -3.6685  -2.7341  -1.6892
    -0.6339  -0.4444  -0.2064   0.2301   0.7441   0.9646   1.4498   1.4860
     2.1926   2.3117

          k = 0.0000 0.5052 0.0000 (  5504 PWs)   bands (ev):

    -5.0677  -4.8372  -4.4572  -3.9345  -3.2817  -2.5172  -2.1417  -1.9242
    -1.6422  -1.5490  -1.1294  -0.5629  -0.0400   0.5633   0.9595   1.4374
     1.9074   1.9216

          k = 0.0000-0.5774 0.0000 (  5484 PWs)   bands (ev):

    -3.6918  -3.6899  -3.4687  -3.4640  -3.1343  -3.0424  -2.6063  -2.5365
    -2.0007  -1.9124  -1.3957  -0.9015  -0.1589   0.1424   0.9503   1.0400
     2.2016   2.2284

          k = 0.0625 0.1083 0.0000 (  5511 PWs)   bands (ev):

    -9.3872  -9.1497  -8.7575  -8.2169  -7.5375  -6.7214  -5.7584  -4.6623
    -3.4049  -2.2520  -0.7675  -0.4942   0.7318   2.2648   3.7647   5.1002
     6.0636   6.7129

          k = 0.0625 0.1804 0.0000 (  5519 PWs)   bands (ev):

    -9.0064  -8.7694  -8.3781  -7.8387  -7.1610  -6.3469  -5.3860  -4.2921
    -3.0355  -1.8952  -0.4131  -0.2089   1.0783   2.5994   4.0814   5.3963
     6.3534   6.9534

          k = 0.0625 0.2526 0.0000 (  5496 PWs)   bands (ev):

    -8.4369  -8.2008  -7.8109  -7.2735  -6.5981  -5.7870  -4.8295  -3.7401
    -2.4865  -1.3623   0.1104   0.2012   1.5794   3.0445   4.2846   4.9277
     5.0741   5.3469

          k = 0.0625 0.3248 0.0000 (  5488 PWs)   bands (ev):

    -7.6812  -7.4462  -7.0582  -6.5234  -5.8515  -5.0446  -4.0927  -3.0107
    -1.7667  -0.6600   0.7077   0.7664   2.0135   2.5505   2.9682   3.2649
     3.6837   4.0317

          k = 0.0625 0.3969 0.0000 (  5490 PWs)   bands (ev):

    -6.7421  -6.5087  -6.1232  -5.5919  -4.9246  -4.1241  -3.1818  -2.1161
    -0.9169   0.1218   0.5084   0.7876   1.2108   1.2588   1.7194   2.0450
     2.3900   3.1316

          k = 0.0625 0.4691 0.0000 (  5501 PWs)   bands (ev):

    -5.6235  -5.3919  -5.0099  -4.4837  -3.8239  -3.0363  -2.1228  -1.2767
    -1.1434  -0.9989  -0.7154  -0.1608   0.4542   0.7798   1.3450   1.4586
     1.7626   2.3027

          k = 0.0625 0.5413 0.0000 (  5499 PWs)   bands (ev):

    -4.3303  -4.1019  -3.7258  -3.2129  -2.8796  -2.6625  -2.5362  -2.2704
    -1.8456  -1.7564  -1.2629  -0.7393  -0.1185   0.4437   0.7459   1.6072
     1.7741   2.0796

          k = 0.1250 0.2165 0.0000 (  5513 PWs)   bands (ev):

    -8.5317  -8.2954  -7.9053  -7.3675  -6.6918  -5.8802  -4.9220  -3.8317
    -2.5774  -1.4509   0.0248   0.1348   1.5013   2.9932   4.4054   5.5187
     6.1129   6.1900

          k = 0.1250 0.2887 0.0000 (  5487 PWs)   bands (ev):

    -7.8697  -7.6345  -7.2460  -6.7106  -6.0378  -5.2296  -4.2761  -3.1919
    -1.9439  -0.8330   0.5878   0.6203   2.0399   3.2810   3.8835   4.2392
     4.4034   4.8842

          k = 0.1250 0.3608 0.0000 (  5494 PWs)   bands (ev):

    -7.0231  -6.7892  -6.4030  -5.8706  -5.2018  -4.3991  -3.4530  -2.3797
    -1.1526  -0.0612   1.1110   1.2064   1.6708   2.0254   2.4617   2.8993
     3.0846   3.5351

          k = 0.1250 0.4330 0.0000 (  5496 PWs)   bands (ev):

    -5.9954  -5.7631  -5.3798  -4.8515  -4.1885  -3.3948  -2.4640  -1.4240
    -0.3738  -0.1774   0.0566   0.4879   0.9975   1.2320   1.6349   1.7062
     2.4346   2.5065

          k = 0.1250 0.5052 0.0000 (  5491 PWs)   bands (ev):

    -4.7903  -4.5604  -4.1814  -3.6603  -3.0100  -2.2492  -1.8709  -1.6539
    -1.3767  -1.2810  -0.8646  -0.3012   0.2217   0.8223   1.1949   1.6811
     2.0466   2.1470

          k = 0.1250 0.5774 0.0000 (  5460 PWs)   bands (ev):

    -3.4174  -3.4155  -3.1956  -3.1908  -2.8643  -2.7677  -2.3358  -2.2638
    -1.7337  -1.6437  -1.1328  -0.6362   0.1012   0.4031   1.1989   1.2795
     2.3952   2.3987

          k = 0.1875 0.3248 0.0000 (  5509 PWs)   bands (ev):

    -7.1170  -6.8829  -6.4964  -5.9637  -5.2944  -4.4909  -3.5436  -2.4683
    -1.2352  -0.1390   1.0598   1.2455   2.4017   2.8874   3.1113   3.3240
     3.5948   3.6639

          k = 0.1875 0.3969 0.0000 (  5493 PWs)   bands (ev):

    -6.1817  -5.9491  -5.5650  -5.0358  -4.3716  -3.5756  -2.6396  -1.5833
    -0.4029   0.6240   1.0311   1.3005   1.5644   1.7183   2.1666   2.2900
     2.4921   2.8212

          k = 0.1875 0.4691 0.0000 (  5470 PWs)   bands (ev):

    -5.0675  -4.8367  -4.4562  -3.9327  -3.2771  -2.4955  -1.5911  -0.7434
    -0.6157  -0.4692  -0.1880   0.3531   0.9245   1.2530   1.8180   1.8399
     2.0145   2.1364

          k = 0.1875 0.5413 0.0000 (  5454 PWs)   bands (ev):

    -3.7795  -3.5524  -3.1788  -2.6703  -2.3372  -2.1228  -1.9934  -1.7293
    -1.3154  -1.2210  -0.7387  -0.2186   0.3952   0.9142   1.2162   1.8071
     1.9335   2.0914

          k = 0.2500 0.4330 0.0000 (  5491 PWs)   bands (ev):

    -5.1599  -4.9291  -4.5483  -4.0240  -3.3671  -2.5824  -1.6665  -0.6580
     0.3205   0.6079   0.6116   0.7292   0.8399   1.1078   1.4117   1.7781
     2.0243   2.0541

          k = 0.2500 0.5052 0.0000 (  5430 PWs)   bands (ev):

    -3.9623  -3.7341  -3.3584  -2.8427  -2.2008  -1.4540  -1.0628  -0.8487
    -0.6021  -0.4870  -0.0894   0.3301   0.4041   0.5463   0.7990   1.0001
     1.3986   1.5769

          k = 0.2500 0.5774 0.0000 (  5430 PWs)   bands (ev):

    -2.5997  -2.5975  -2.3813  -2.3754  -2.0578  -1.9515  -1.5329  -1.4550
    -0.9464  -0.8469  -0.3628   0.0946   0.2597   0.4603   0.7877   0.7946
     1.1148   1.1853

          k = 0.3125 0.5413 0.0000 (  5411 PWs)   bands (ev):

    -2.6873  -2.4640  -2.0977  -1.6056  -1.2710  -1.2498  -1.0736  -1.0322
    -0.9048  -0.7139  -0.6097  -0.3278  -0.1656  -0.1526   0.1548   0.4416
     0.8890   1.0367

[...]
    -3.4332  -2.2602  -0.8001  -0.4834   0.6821   2.2037   3.6915   5.0432
     6.0286   6.6848

          k = 0.0625 0.1804 0.0000 (  5519 PWs)   bands (ev):

    -8.9586  -8.7184  -8.3326  -7.7833  -7.1208  -6.3349  -5.3813  -4.3021
    -3.0634  -1.9031  -0.4452  -0.1981   1.0296   2.5400   4.0116   5.3435
     6.3243   6.9464

          k = 0.0625 0.2526 0.0000 (  5496 PWs)   bands (ev):

    -8.3891  -8.1498  -7.7653  -7.2179  -6.5578  -5.7747  -4.8245  -3.7494
    -2.5138  -1.3698   0.0795   0.2120   1.5336   2.9937   4.2642   4.9553
     5.0855   5.3767

          k = 0.0625 0.3248 0.0000 (  5488 PWs)   bands (ev):

    -7.6333  -7.3951  -7.0125  -6.4677  -5.8109  -5.0320  -4.0872  -3.0193
    -1.7929  -0.6664   0.7186   0.7405   2.0026   2.5798   2.9981   3.2981
     3.7302   3.9942

          k = 0.0625 0.3969 0.0000 (  5490 PWs)   bands (ev):

    -6.6942  -6.4575  -6.0774  -5.5359  -4.8837  -4.1111  -3.1754  -2.1232
    -0.9391   0.1258   0.5520   0.8286   1.2459   1.2698   1.7605   2.0399
     2.4287   3.1415

          k = 0.0625 0.4691 0.0000 (  5501 PWs)   bands (ev):

    -5.5755  -5.3406  -4.9639  -4.4275  -3.7825  -3.0221  -2.1142  -1.2451
    -1.1135  -0.9627  -0.6758  -0.1226   0.4667   0.7998   1.3482   1.4636
     1.7736   2.3099

          k = 0.0625 0.5413 0.0000 (  5499 PWs)   bands (ev):

    -4.2822  -4.0505  -3.6797  -3.1566  -2.8319  -2.6123  -2.4913  -2.2250
    -1.8170  -1.7136  -1.2294  -0.7230  -0.1102   0.4386   0.7527   1.5838
     1.7658   2.0908

          k = 0.1250 0.2165 0.0000 (  5513 PWs)   bands (ev):

    -8.4839  -8.2444  -7.8597  -7.3120  -6.6515  -5.8679  -4.9171  -3.8412
    -2.6048  -1.4585  -0.0064   0.1457   1.4545   2.9380   4.3493   5.5036
     6.1367   6.2334

          k = 0.1250 0.2887 0.0000 (  5487 PWs)   bands (ev):

    -7.8219  -7.5834  -7.2004  -6.6549  -5.9972  -5.2172  -4.2707  -3.2007
    -1.9706  -0.8398   0.5915   0.5987   2.0007   3.2668   3.9109   4.2616
     4.4448   4.9376

          k = 0.1250 0.3608 0.0000 (  5494 PWs)   bands (ev):

    -6.9752  -6.7381  -6.3572  -5.8147  -5.1609  -4.3862  -3.4470  -2.3875
    -1.1774  -0.0658   1.1220   1.2008   1.7086   2.0606   2.4994   2.9351
     3.0758   3.5727

          k = 0.1250 0.4330 0.0000 (  5496 PWs)   bands (ev):

    -5.9474  -5.7119  -5.3339  -4.7954  -4.1473  -3.3811  -2.4567  -1.4291
    -0.3786  -0.1303   0.1008   0.5223   1.0189   1.2594   1.6460   1.7459
     2.4482   2.4824

          k = 0.1250 0.5052 0.0000 (  5491 PWs)   bands (ev):

    -4.7423  -4.5090  -4.1354  -3.6040  -2.9681  -2.2321  -1.8258  -1.6034
    -1.3533  -1.2465  -0.8185  -0.2783   0.2395   0.8343   1.1742   1.6887
     2.0577   2.1430

          k = 0.1250 0.5774 0.0000 (  5460 PWs)   bands (ev):

    -3.3695  -3.3669  -3.1452  -3.1382  -2.8188  -2.7212  -2.2786  -2.2068
    -1.6939  -1.5995  -1.1162  -0.6236   0.1050   0.4107   1.1921   1.2744
     2.2187   2.3743

          k = 0.1875 0.3248 0.0000 (  5509 PWs)   bands (ev):

    -7.0691  -6.8317  -6.4507  -5.9078  -5.2536  -4.4780  -3.5377  -2.4762
    -1.2605  -0.1444   1.0708   1.2237   2.3973   2.9235   3.1544   3.3737
     3.6409   3.6817

          k = 0.1875 0.3969 0.0000 (  5493 PWs)   bands (ev):

    -6.1337  -5.8978  -5.5192  -4.9798  -4.3304  -3.5621  -2.6328  -1.5897
    -0.4237   0.6294   1.0750   1.3421   1.5754   1.7531   2.1883   2.3399
     2.5291   2.8577

          k = 0.1875 0.4691 0.0000 (  5470 PWs)   bands (ev):

    -5.0194  -4.7854  -4.4102  -3.8763  -3.2354  -2.4809  -1.5819  -0.7139
    -0.5848  -0.4312  -0.1483   0.3908   0.9375   1.2806   1.8224   1.8641
     2.0256   2.1742

          k = 0.1875 0.5413 0.0000 (  5454 PWs)   bands (ev):

    -3.7314  -3.5010  -3.1326  -2.6140  -2.2896  -2.0726  -1.9478  -1.6838
    -1.2867  -1.1777  -0.7049  -0.2013   0.4044   0.9132   1.2262   1.8119
     1.9661   2.1245

          k = 0.2500 0.4330 0.0000 (  5491 PWs)   bands (ev):

    -5.1119  -4.8778  -4.5024  -3.9677  -3.3254  -2.5680  -1.6583  -0.6607
     0.3179   0.6551   0.6577   0.7760   0.8910   1.1529   1.4555   1.8277
     2.0298   2.0986

          k = 0.2500 0.5052 0.0000 (  5430 PWs)   bands (ev):

    -3.9142  -3.6827  -3.3122  -2.7861  -2.1584  -1.4359  -1.0177  -0.7982
    -0.5795  -0.4501  -0.0434   0.3738   0.4345   0.5944   0.8327   1.0348
     1.4369   1.5991

          k = 0.2500 0.5774 0.0000 (  5430 PWs)   bands (ev):

    -2.5518  -2.5490  -2.3309  -2.3227  -2.0122  -1.9047  -1.4753  -1.3978
    -0.9062  -0.8020  -0.3449   0.1166   0.2992   0.5106   0.8035   0.8307
     1.1304   1.2288

          k = 0.3125 0.5413 0.0000 (  5411 PWs)   bands (ev):

    -2.6391  -2.4124  -2.0513  -1.5493  -1.2245  -1.2011  -1.0222  -0.9807
    -0.8576  -0.6679  -0.5644  -0.2937  -0.1249  -0.0980   0.1914   0.4825
     0.9030   1.0500

          k =-0.0625 0.0361 0.0000 (  5524 PWs)   bands (ev):

    -9.5302  -9.2892  -8.9021  -8.3511  -7.6862  -6.8974  -5.9406  -4.8581
    -3.6190  -2.4393  -0.9786  -0.6292   0.5063   2.0316   3.5234   4.8764
     5.8551   6.5089

          k =-0.1250 0.0722 0.0000 (  5500 PWs)   bands (ev):

    -9.2441  -9.0035  -8.6171  -8.0669  -7.4032  -6.6158  -5.6606  -4.5798
    -3.3407  -2.1711  -0.7112  -0.4112   0.7693   2.2886   3.7735   5.1228
     6.1106   6.7668

          k =-0.1875 0.1083 0.0000 (  5496 PWs)   bands (ev):

    -8.7685  -8.5286  -8.1432  -7.5946  -6.9328  -6.1479  -5.1953  -4.1175
    -2.8797  -1.7251  -0.2692  -0.0590   1.2001   2.6995   4.1434   5.3696
     6.0107   6.0968

          k =-0.2500 0.1443 0.0000 (  5490 PWs)   bands (ev):

    -8.1052  -7.8663  -7.4826  -6.9361  -6.2772  -5.4957  -4.5475  -3.4748
    -2.2419  -1.1049   0.3341   0.4072   1.7572   3.0376   3.6834   4.0414
     4.2150   4.7215

          k =-0.3125 0.1804 0.0000 (  5482 PWs)   bands (ev):

    -7.2569  -7.0193  -6.6377  -6.0942  -5.4391  -4.6626  -3.7210  -2.6584
    -1.4432  -0.3271   0.9483   0.9491   1.4493   1.8051   2.2505   2.6888
     2.8725   3.3565

          k =-0.3750 0.2165 0.0000 (  5488 PWs)   bands (ev):

    -6.2270  -5.9911  -5.6122  -5.0727  -4.4233  -3.6550  -2.7271  -1.6947
    -0.6386  -0.3973  -0.1625   0.2641   0.7644   0.9920   1.4894   1.4970
     2.2059   2.2808

          k =-0.4375 0.2526 0.0000 (  5504 PWs)   bands (ev):

    -5.0197  -4.7859  -4.4112  -3.8782  -3.2400  -2.5004  -2.0964  -1.8736
    -1.6187  -1.5150  -1.0834  -0.5403  -0.0227   0.5747   0.9370   1.4439
     1.9016   1.9328

          k = 0.5000-0.2887 0.0000 (  5484 PWs)   bands (ev):

    -3.6440  -3.6414  -3.4183  -3.4115  -3.0888  -2.9960  -2.5491  -2.4795
    -1.9611  -1.8683  -1.3793  -0.8892  -0.1554   0.1496   0.9428   1.0334
     2.1048   2.1787

          k = 0.1250 0.0000 0.0000 (  5511 PWs)   bands (ev):

    -9.3394  -9.0987  -8.7121  -8.1616  -7.4975  -6.7096  -5.7538  -4.6725
    -3.4332  -2.2602  -0.8001  -0.4834   0.6821   2.2037   3.6915   5.0432
     6.0286   6.6848

          k =-0.1250 0.1443 0.0000 (  5519 PWs)   bands (ev):

    -8.9586  -8.7184  -8.3326  -7.7833  -7.1208  -6.3349  -5.3813  -4.3021
    -3.0634  -1.9031  -0.4452  -0.1981   1.0296   2.5400   4.0116   5.3435
     6.3243   6.9464

          k = 0.1875 0.0361 0.0000 (  5519 PWs)   bands (ev):

    -8.9586  -8.7184  -8.3326  -7.7833  -7.1208  -6.3349  -5.3813  -4.3021
    -3.0634  -1.9031  -0.4452  -0.1981   1.0296   2.5400   4.0116   5.3435
     6.3243   6.9464

          k =-0.1875 0.1804 0.0000 (  5496 PWs)   bands (ev):

    -8.3891  -8.1498  -7.7653  -7.2179  -6.5578  -5.7747  -4.8245  -3.7494
    -2.5138  -1.3698   0.0795   0.2120   1.5336   2.9937   4.2642   4.9553
     5.0855   5.3767

          k = 0.2500 0.0722 0.0000 (  5496 PWs)   bands (ev):

    -8.3891  -8.1498  -7.7653  -7.2179  -6.5578  -5.7747  -4.8245  -3.7494
    -2.5138  -1.3698   0.0795   0.2120   1.5336   2.9937   4.2642   4.9553
     5.0855   5.3767

          k =-0.2500 0.2165 0.0000 (  5488 PWs)   bands (ev):

    -7.6333  -7.3951  -7.0125  -6.4677  -5.8109  -5.0320  -4.0872  -3.0193
    -1.7929  -0.6664   0.7186   0.7405   2.0026   2.5798   2.9981   3.2981
     3.7302   3.9942

          k = 0.3125 0.1083 0.0000 (  5488 PWs)   bands (ev):

    -7.6333  -7.3951  -7.0125  -6.4677  -5.8109  -5.0320  -4.0872  -3.0193
    -1.7929  -0.6664   0.7186   0.7405   2.0026   2.5798   2.9981   3.2981
     3.7302   3.9942

          k =-0.3125 0.2526 0.0000 (  5490 PWs)   bands (ev):

    -6.6942  -6.4575  -6.0774  -5.5359  -4.8837  -4.1111  -3.1754  -2.1232
    -0.9391   0.1258   0.5520   0.8286   1.2459   1.2698   1.7605   2.0399
     2.4287   3.1415

          k = 0.3750 0.1443 0.0000 (  5490 PWs)   bands (ev):

    -6.6942  -6.4575  -6.0774  -5.5359  -4.8837  -4.1111  -3.1754  -2.1232
    -0.9391   0.1258   0.5520   0.8286   1.2459   1.2698   1.7605   2.0399
     2.4287   3.1415

          k =-0.3750 0.2887 0.0000 (  5501 PWs)   bands (ev):

    -5.5755  -5.3406  -4.9639  -4.4275  -3.7825  -3.0221  -2.1142  -1.2451
    -1.1135  -0.9627  -0.6758  -0.1226   0.4667   0.7998   1.3482   1.4636
     1.7736   2.3099

          k = 0.4375 0.1804 0.0000 (  5501 PWs)   bands (ev):

    -5.5755  -5.3406  -4.9639  -4.4275  -3.7825  -3.0221  -2.1142  -1.2451
    -1.1135  -0.9627  -0.6758  -0.1226   0.4667   0.7998   1.3482   1.4636
     1.7736   2.3099

          k =-0.4375 0.3248 0.0000 (  5499 PWs)   bands (ev):

    -4.2822  -4.0505  -3.6797  -3.1566  -2.8319  -2.6123  -2.4913  -2.2250
    -1.8170  -1.7136  -1.2294  -0.7230  -0.1102   0.4386   0.7527   1.5838
     1.7658   2.0908

          k = 0.5000 0.2165 0.0000 (  5499 PWs)   bands (ev):

    -4.2822  -4.0505  -3.6797  -3.1566  -2.8319  -2.6123  -2.4913  -2.2250
    -1.8170  -1.7136  -1.2294  -0.7230  -0.1102   0.4386   0.7527   1.5838
     1.7658   2.0908

          k = 0.2500 0.0000 0.0000 (  5513 PWs)   bands (ev):

    -8.4839  -8.2444  -7.8597  -7.3120  -6.6515  -5.8679  -4.9171  -3.8412
    -2.6048  -1.4585  -0.0064   0.1457   1.4545   2.9380   4.3493   5.5036
     6.1367   6.2334

          k =-0.1875 0.2526 0.0000 (  5487 PWs)   bands (ev):

    -7.8219  -7.5834  -7.2004  -6.6549  -5.9972  -5.2172  -4.2707  -3.2007
    -1.9706  -0.8398   0.5915   0.5987   2.0007   3.2668   3.9109   4.2616
     4.4448   4.9376

          k = 0.3125 0.0361 0.0000 (  5487 PWs)   bands (ev):

    -7.8219  -7.5834  -7.2004  -6.6549  -5.9972  -5.2172  -4.2707  -3.2007
    -1.9706  -0.8398   0.5915   0.5987   2.0007   3.2668   3.9109   4.2616
     4.4448   4.9376

          k =-0.2500 0.2887 0.0000 (  5494 PWs)   bands (ev):

    -6.9752  -6.7381  -6.3572  -5.8147  -5.1609  -4.3862  -3.4470  -2.3875
    -1.1774  -0.0658   1.1220   1.2008   1.7086   2.0606   2.4994   2.9351
     3.0758   3.5727

          k = 0.3750 0.0722 0.0000 (  5494 PWs)   bands (ev):

    -6.9752  -6.7381  -6.3572  -5.8147  -5.1609  -4.3862  -3.4470  -2.3875
    -1.1774  -0.0658   1.1220   1.2008   1.7086   2.0606   2.4994   2.9351
     3.0758   3.5727

          k =-0.3125 0.3248 0.0000 (  5496 PWs)   bands (ev):

    -5.9474  -5.7119  -5.3339  -4.7954  -4.1473  -3.3811  -2.4567  -1.4291
    -0.3786  -0.1303   0.1008   0.5223   1.0189   1.2594   1.6460   1.7459
     2.4482   2.4824

          k = 0.4375 0.1083 0.0000 (  5496 PWs)   bands (ev):

    -5.9474  -5.7119  -5.3339  -4.7954  -4.1473  -3.3811  -2.4567  -1.4291
    -0.3786  -0.1303   0.1008   0.5223   1.0189   1.2594   1.6460   1.7459
     2.4482   2.4824

          k =-0.3750 0.3608 0.0000 (  5491 PWs)   bands (ev):

    -4.7423  -4.5090  -4.1354  -3.6040  -2.9681  -2.2321  -1.8258  -1.6034
    -1.3533  -1.2465  -0.8185  -0.2783   0.2395   0.8343   1.1742   1.6887
     2.0577   2.1430

          k = 0.5000 0.1443 0.0000 (  5491 PWs)   bands (ev):

    -4.7423  -4.5090  -4.1354  -3.6040  -2.9681  -2.2321  -1.8258  -1.6034
    -1.3533  -1.2465  -0.8185  -0.2783   0.2395   0.8343   1.1742   1.6887
     2.0577   2.1430

          k =-0.4375 0.3969 0.0000 (  5460 PWs)   bands (ev):

    -3.3696  -3.3669  -3.1452  -3.1382  -2.8188  -2.7212  -2.2786  -2.2068
    -1.6939  -1.5995  -1.1162  -0.6236   0.1050   0.4107   1.1922   1.2744
     2.2187   2.3774

          k = 0.3750 0.0000 0.0000 (  5509 PWs)   bands (ev):

    -7.0691  -6.8317  -6.4507  -5.9078  -5.2536  -4.4780  -3.5377  -2.4762
    -1.2605  -0.1444   1.0708   1.2237   2.3973   2.9235   3.1544   3.3737
     3.6409   3.6817

          k =-0.2500 0.3608 0.0000 (  5493 PWs)   bands (ev):

    -6.1337  -5.8978  -5.5192  -4.9798  -4.3304  -3.5621  -2.6328  -1.5897
    -0.4237   0.6294   1.0750   1.3421   1.5754   1.7531   2.1883   2.3399
     2.5291   2.8577

          k = 0.4375 0.0361 0.0000 (  5493 PWs)   bands (ev):

    -6.1337  -5.8978  -5.5192  -4.9798  -4.3304  -3.5621  -2.6328  -1.5897
    -0.4237   0.6294   1.0750   1.3421   1.5754   1.7531   2.1883   2.3399
     2.5291   2.8577

          k =-0.3125 0.3969 0.0000 (  5470 PWs)   bands (ev):

    -5.0194  -4.7854  -4.4102  -3.8763  -3.2354  -2.4809  -1.5819  -0.7139
    -0.5848  -0.4312  -0.1483   0.3908   0.9375   1.2806   1.8224   1.8641
     2.0256   2.1742

          k = 0.5000 0.0722 0.0000 (  5470 PWs)   bands (ev):

    -5.0194  -4.7854  -4.4102  -3.8763  -3.2354  -2.4809  -1.5819  -0.7139
    -0.5848  -0.4312  -0.1483   0.3908   0.9375   1.2806   1.8224   1.8641
     2.0256   2.1742

          k =-0.3750 0.4330 0.0000 (  5454 PWs)   bands (ev):

    -3.7314  -3.5010  -3.1326  -2.6140  -2.2896  -2.0726  -1.9478  -1.6838
    -1.2867  -1.1777  -0.7049  -0.2013   0.4044   0.9132   1.2262   1.8119
     1.9661   2.1245

          k = 0.5625 0.1083 0.0000 (  5454 PWs)   bands (ev):

    -3.7314  -3.5010  -3.1326  -2.6140  -2.2896  -2.0726  -1.9478  -1.6838
    -1.2867  -1.1777  -0.7049  -0.2013   0.4044   0.9132   1.2262   1.8119
     1.9661   2.1245

          k = 0.5000 0.0000 0.0000 (  5491 PWs)   bands (ev):

    -5.1119  -4.8778  -4.5024  -3.9677  -3.3254  -2.5680  -1.6583  -0.6607
     0.3179   0.6551   0.6577   0.7760   0.8910   1.1529   1.4555   1.8277
     2.0298   2.0986

          k =-0.3125 0.4691 0.0000 (  5430 PWs)   bands (ev):

    -3.9142  -3.6827  -3.3122  -2.7861  -2.1584  -1.4359  -1.0177  -0.7982
    -0.5795  -0.4501  -0.0434   0.3738   0.4345   0.5944   0.8327   1.0348
     1.4369   1.5991

          k = 0.5625 0.0361 0.0000 (  5430 PWs)   bands (ev):

    -3.9142  -3.6827  -3.3122  -2.7861  -2.1584  -1.4359  -1.0177  -0.7982
    -0.5795  -0.4501  -0.0434   0.3738   0.4345   0.5944   0.8327   1.0348
     1.4369   1.5991

          k =-0.3750 0.5052 0.0000 (  5430 PWs)   bands (ev):

    -2.5518  -2.5490  -2.3309  -2.3227  -2.0122  -1.9047  -1.4753  -1.3978
    -0.9062  -0.8020  -0.3449   0.1166   0.2992   0.5106   0.8035   0.8307
     1.1304   1.2288

          k = 0.6250 0.0000 0.0000 (  5411 PWs)   bands (ev):

    -2.6391  -2.4124  -2.0513  -1.5493  -1.2245  -1.2011  -1.0222  -0.9807
    -0.8576  -0.6679  -0.5644  -0.2937  -0.1249  -0.0980   0.1914   0.4825
     0.9030   1.0500

     the Fermi energy is     1.5126 ev

!    total energy              =    -113.10813637 Ry
     Harris-Foulkes estimate   =    -113.10813642 Ry
     estimated scf accuracy    <       0.00000008 Ry

     The total energy is the sum of the following terms:

     one-electron contribution =   -1045.93982559 Ry
     hartree contribution      =     530.33961967 Ry
     xc contribution           =     -90.61477504 Ry
     ewald contribution        =     493.10544226 Ry
     smearing contrib. (-TS)   =       0.00140234 Ry

     convergence has been achieved in   4 iterations

     Forces acting on atoms (Ry/au):


     negative rho (up, down):  5.789E-06 0.000E+00
     atom    1 type  1   force =     0.00000000    0.00000002    0.00060797
     atom    2 type  1   force =     0.00000000    0.00000000   -0.00056022
     atom    3 type  1   force =     0.00000000   -0.00000000    0.00020744
     atom    4 type  1   force =     0.00000000   -0.00000001    0.00076774
     atom    5 type  1   force =     0.00000000   -0.00000001    0.00002692
     atom    6 type  1   force =     0.00000000    0.00000003   -0.00073579
     atom    7 type  1   force =     0.00000000    0.00000001   -0.00020422
     atom    8 type  1   force =     0.00000000    0.00000001    0.00057718
     atom    9 type  1   force =     0.00000000   -0.00000003   -0.00061550
     atom   10 type  2   force =     0.00000000   -0.00000002   -0.00007153

     Total force =     0.001618     Total SCF correction =     0.000352
     SCF correction compared to forces is large: reduce conv_thr to get better values


     entering subroutine stress ...


     negative rho (up, down):  5.789E-06 0.000E+00
          total   stress  (Ry/bohr**3)                   (kbar)     P=  -12.57
  -0.00011534   0.00000000   0.00000000        -16.97      0.00      0.00
   0.00000000  -0.00011534   0.00000000          0.00    -16.97      0.00
   0.00000000   0.00000000  -0.00002577          0.00      0.00     -3.79


     bfgs converged in  20 scf cycles and  19 bfgs steps
     (criteria: energy <  1.0E-04, force <  1.0E-03)

     End of BFGS Geometry Optimization

     Final energy   =    -113.1081363710 Ry
Begin final coordinates

ATOMIC_POSITIONS (crystal)
Al       0.333333209   0.666666418   0.110444812
Al       0.666666470   0.333333041   0.054890219
Al       0.000000135   0.000000270  -0.001471282
Al       0.333333677   0.666667355   0.277960898
Al       0.666666778   0.333333656   0.222217298
Al      -0.000000188  -0.000000376   0.166487162
Al       0.333333255   0.666666511   0.445997242
Al       0.666666708   0.333333515   0.389601256
Al       0.000000240   0.000000480   0.334029704
H        0.833332715   0.666665500   0.666509312
End final coordinates



     Writing output data file Al_111_3_3.save

     init_run     :      5.96s CPU      9.04s WALL (       1 calls)
     electrons    :   1592.32s CPU   2864.51s WALL (      20 calls)
     update_pot   :      8.19s CPU      8.57s WALL (      19 calls)
     forces       :     54.46s CPU     56.77s WALL (      20 calls)
     stress       :    106.34s CPU    111.04s WALL (      20 calls)

     Called by init_run:
     wfcinit      :      5.36s CPU      8.40s WALL (       1 calls)
     potinit      :      0.18s CPU      0.20s WALL (       1 calls)

     Called by electrons:
     c_bands      :   1325.12s CPU   2322.00s WALL (     202 calls)
     sum_band     :    158.63s CPU    378.57s WALL (     202 calls)
     v_of_rho     :     26.15s CPU     28.54s WALL (     219 calls)
     newd         :     15.75s CPU     16.29s WALL (     219 calls)
     mix_rho      :     68.48s CPU    120.70s WALL (     202 calls)

     Called by c_bands:
     init_us_2    :     41.40s CPU     55.14s WALL (   32485 calls)
     cegterg      :   1283.56s CPU   2265.05s WALL (   14746 calls)

     Called by *egterg:
     h_psi        :    516.18s CPU   1405.39s WALL (   40817 calls)
     s_psi        :    186.06s CPU    209.38s WALL (   40817 calls)
     g_psi        :      6.39s CPU      8.50s WALL (   25998 calls)
     cdiaghg      :     20.88s CPU     28.37s WALL (   39138 calls)

     Called by h_psi:
     add_vuspsi   :    188.04s CPU    209.45s WALL (   40817 calls)

     General routines
     calbec       :    274.44s CPU    352.58s WALL (   58483 calls)
     fft          :     11.98s CPU     16.00s WALL (    3955 calls)
     ffts         :     29.93s CPU     59.41s WALL (   46490 calls)
     fftw         :    149.74s CPU    970.44s WALL ( 1429990 calls)
     interpolate  :      1.68s CPU      2.56s WALL (     421 calls)
     davcio       :      0.00s CPU      0.25s WALL (      73 calls)

     Parallel routines
     fft_scatter  :     27.68s CPU    149.20s WALL ( 1480435 calls)

     PWSCF        : 29m31.52s CPU    50m54.74s WALL


   This run was terminated on:  13:27: 5   4Jun2020            

=------------------------------------------------------------------------------=
   JOB DONE.
=------------------------------------------------------------------------------=
