
     Program PWSCF v.6.4.1 starts on 30May2020 at 22:38:56 

     This program is part of the open-source Quantum ESPRESSO suite
     for quantum simulation of materials; please cite
         "P. Giannozzi et al., J. Phys.:Condens. Matter 21 395502 (2009);
         "P. Giannozzi et al., J. Phys.:Condens. Matter 29 465901 (2017);
          URL http://www.quantum-espresso.org", 
     in publications or presentations arising from this work. More details at
     http://www.quantum-espresso.org/quote

     Parallel version (MPI & OpenMP), running on       1 processor cores
     Number of MPI processes:                 1
     Threads/MPI process:                     1

     MPI processes distributed on     1 nodes
     Reading input from Al_100_surf_16.pw.in

     Current dimensions of program PWSCF are:
     Max number of different atomic species (ntypx) = 10
     Max number of k-points (npk) =  40000
     Max angular momentum in pseudopotentials (lmaxx) =  3

     Subspace diagonalization in iterative solution of the eigenvalue problem:
     a serial algorithm will be used

     Found symmetry operation: I + ( -0.5000 -0.5000  0.0000)
     This is a supercell, fractional translations are disabled
 
     G-vector sticks info
     --------------------
     sticks:   dense  smooth     PW     G-vecs:    dense   smooth      PW
     Sum         681     681    421               136265   136265   64459
 


     bravais-lattice index     =            6
     lattice parameter (alat)  =       7.6050  a.u.
     unit-cell volume          =    4398.4297 (a.u.)^3
     number of atoms/cell      =           24
     number of atomic types    =            1
     number of electrons       =        72.00
     number of Kohn-Sham states=           43
     kinetic-energy cutoff     =      80.0000  Ry
     charge density cutoff     =     150.0000  Ry
     convergence threshold     =      1.0E-06
     mixing beta               =       0.3000
     number of iterations used =            8  local-TF  mixing
     Exchange-correlation      =  SLA  PW   PBE  PBE ( 1  4  3  4 0 0)
     nstep                     =           50


     celldm(1)=   7.605000  celldm(2)=   0.000000  celldm(3)=  10.000000
     celldm(4)=   0.000000  celldm(5)=   0.000000  celldm(6)=   0.000000

     crystal axes: (cart. coord. in units of alat)
               a(1) = (   1.000000   0.000000   0.000000 )  
               a(2) = (   0.000000   1.000000   0.000000 )  
               a(3) = (   0.000000   0.000000  10.000000 )  

     reciprocal axes: (cart. coord. in units 2 pi/alat)
               b(1) = (  1.000000  0.000000  0.000000 )  
               b(2) = (  0.000000  1.000000  0.000000 )  
               b(3) = (  0.000000  0.000000  0.100000 )  


     PseudoPot. # 1 for Al read from file:
     ./Al.pbe-n-van.UPF
     MD5 check sum: b11ded24487aef5bc42d5c7a2e22a7b6
     Pseudo is Ultrasoft + core correction, Zval =  3.0
     Generated by new atomic code, or converted to UPF format
     Using radial grid of  893 points,  2 beta functions with: 
                l(1) =   0
                l(2) =   1
     Q(r) pseudized with  8 coefficients,  rinner =    0.900   0.900   0.900


     atomic species   valence    mass     pseudopotential
        Al             3.00    26.98000     Al( 1.00)

      8 Sym. Ops. (no inversion) found



   Cartesian axes

     site n.     atom                  positions (alat units)
         1           Al  tau(   1) = (   0.0000000   0.0000000   0.0000000  )
         2           Al  tau(   2) = (   0.5000000   0.5000000   0.0000000  )
         3           Al  tau(   3) = (   0.5000000   0.0000000   0.5000000  )
         4           Al  tau(   4) = (   0.0000000   0.5000000   0.5000000  )
         5           Al  tau(   5) = (   0.0000000   0.0000000   1.0000000  )
         6           Al  tau(   6) = (   0.5000000   0.5000000   1.0000000  )
         7           Al  tau(   7) = (   0.5000000   0.0000000   1.5000000  )
         8           Al  tau(   8) = (   0.0000000   0.5000000   1.5000000  )
         9           Al  tau(   9) = (   0.0000000   0.0000000   2.0000000  )
        10           Al  tau(  10) = (   0.5000000   0.5000000   2.0000000  )
        11           Al  tau(  11) = (   0.5000000   0.0000000   2.5000000  )
        12           Al  tau(  12) = (   0.0000000   0.5000000   2.5000000  )
        13           Al  tau(  13) = (   0.0000000   0.0000000   3.0000000  )
        14           Al  tau(  14) = (   0.5000000   0.5000000   3.0000000  )
        15           Al  tau(  15) = (   0.5000000   0.0000000   3.5000000  )
        16           Al  tau(  16) = (   0.0000000   0.5000000   3.5000000  )
        17           Al  tau(  17) = (   0.0000000   0.0000000   4.0000000  )
        18           Al  tau(  18) = (   0.5000000   0.5000000   4.0000000  )
        19           Al  tau(  19) = (   0.5000000   0.0000000   4.5000000  )
        20           Al  tau(  20) = (   0.0000000   0.5000000   4.5000000  )
        21           Al  tau(  21) = (   0.0000000   0.0000000   5.0000000  )
        22           Al  tau(  22) = (   0.5000000   0.5000000   5.0000000  )
        23           Al  tau(  23) = (   0.5000000   0.0000000   5.5000000  )
        24           Al  tau(  24) = (   0.0000000   0.5000000   5.5000000  )

     number of k points=    45  Marzari-Vanderbilt smearing, width (Ry)=  0.0250
                       cart. coord. in units 2pi/alat
        k(    1) = (   0.0000000   0.0000000   0.0000000), wk =   0.0078125
        k(    2) = (   0.0000000   0.0625000   0.0000000), wk =   0.0312500
        k(    3) = (   0.0000000   0.1250000   0.0000000), wk =   0.0312500
        k(    4) = (   0.0000000   0.1875000   0.0000000), wk =   0.0312500
        k(    5) = (   0.0000000   0.2500000   0.0000000), wk =   0.0312500
        k(    6) = (   0.0000000   0.3125000   0.0000000), wk =   0.0312500
        k(    7) = (   0.0000000   0.3750000   0.0000000), wk =   0.0312500
        k(    8) = (   0.0000000   0.4375000   0.0000000), wk =   0.0312500
        k(    9) = (   0.0000000  -0.5000000   0.0000000), wk =   0.0156250
        k(   10) = (   0.0625000   0.0625000   0.0000000), wk =   0.0312500
        k(   11) = (   0.0625000   0.1250000   0.0000000), wk =   0.0625000
        k(   12) = (   0.0625000   0.1875000   0.0000000), wk =   0.0625000
        k(   13) = (   0.0625000   0.2500000   0.0000000), wk =   0.0625000
        k(   14) = (   0.0625000   0.3125000   0.0000000), wk =   0.0625000
        k(   15) = (   0.0625000   0.3750000   0.0000000), wk =   0.0625000
        k(   16) = (   0.0625000   0.4375000   0.0000000), wk =   0.0625000
        k(   17) = (   0.0625000  -0.5000000   0.0000000), wk =   0.0312500
        k(   18) = (   0.1250000   0.1250000   0.0000000), wk =   0.0312500
        k(   19) = (   0.1250000   0.1875000   0.0000000), wk =   0.0625000
        k(   20) = (   0.1250000   0.2500000   0.0000000), wk =   0.0625000
        k(   21) = (   0.1250000   0.3125000   0.0000000), wk =   0.0625000
        k(   22) = (   0.1250000   0.3750000   0.0000000), wk =   0.0625000
        k(   23) = (   0.1250000   0.4375000   0.0000000), wk =   0.0625000
        k(   24) = (   0.1250000  -0.5000000   0.0000000), wk =   0.0312500
        k(   25) = (   0.1875000   0.1875000   0.0000000), wk =   0.0312500
        k(   26) = (   0.1875000   0.2500000   0.0000000), wk =   0.0625000
        k(   27) = (   0.1875000   0.3125000   0.0000000), wk =   0.0625000
        k(   28) = (   0.1875000   0.3750000   0.0000000), wk =   0.0625000
        k(   29) = (   0.1875000   0.4375000   0.0000000), wk =   0.0625000
        k(   30) = (   0.1875000  -0.5000000   0.0000000), wk =   0.0312500
        k(   31) = (   0.2500000   0.2500000   0.0000000), wk =   0.0312500
        k(   32) = (   0.2500000   0.3125000   0.0000000), wk =   0.0625000
        k(   33) = (   0.2500000   0.3750000   0.0000000), wk =   0.0625000
        k(   34) = (   0.2500000   0.4375000   0.0000000), wk =   0.0625000
        k(   35) = (   0.2500000  -0.5000000   0.0000000), wk =   0.0312500
        k(   36) = (   0.3125000   0.3125000   0.0000000), wk =   0.0312500
        k(   37) = (   0.3125000   0.3750000   0.0000000), wk =   0.0625000
        k(   38) = (   0.3125000   0.4375000   0.0000000), wk =   0.0625000
        k(   39) = (   0.3125000  -0.5000000   0.0000000), wk =   0.0312500
        k(   40) = (   0.3750000   0.3750000   0.0000000), wk =   0.0312500
        k(   41) = (   0.3750000   0.4375000   0.0000000), wk =   0.0625000
        k(   42) = (   0.3750000  -0.5000000   0.0000000), wk =   0.0312500
        k(   43) = (   0.4375000   0.4375000   0.0000000), wk =   0.0312500
        k(   44) = (   0.4375000  -0.5000000   0.0000000), wk =   0.0312500
        k(   45) = (  -0.5000000  -0.5000000   0.0000000), wk =   0.0078125

     Dense  grid:   136265 G-vectors     FFT dimensions: (  30,  30, 300)

     Estimated max dynamical RAM per process >       2.13 GB

     Initial potential from superposition of free atoms

     starting charge   71.94083, renormalised to   72.00000

     negative rho (up, down):  5.062E-05 0.000E+00
     Starting wfcs are   96 randomized atomic wfcs

     total cpu time spent up to now is       75.1 secs

     Self-consistent Calculation

     iteration #  1     ecut=    80.00 Ry     beta= 0.30
     Davidson diagonalization with overlap
     ethr =  1.00E-02,  avg # of iterations =  2.8

     total cpu time spent up to now is      204.8 secs

     total energy              =    -299.14215811 Ry
     Harris-Foulkes estimate   =    -299.19769736 Ry
     estimated scf accuracy    <       2.20985235 Ry

     iteration #  2     ecut=    80.00 Ry     beta= 0.30
     Davidson diagonalization with overlap
     ethr =  3.07E-03,  avg # of iterations =  1.0

     total cpu time spent up to now is      284.6 secs

     total energy              =    -298.97906334 Ry
     Harris-Foulkes estimate   =    -299.15921373 Ry
     estimated scf accuracy    <       1.58508037 Ry

     iteration #  3     ecut=    80.00 Ry     beta= 0.30
     Davidson diagonalization with overlap
     ethr =  2.20E-03,  avg # of iterations =  2.0

     total cpu time spent up to now is      370.6 secs

     total energy              =    -299.05502347 Ry
     Harris-Foulkes estimate   =    -299.07263423 Ry
     estimated scf accuracy    <       0.13794293 Ry

     iteration #  4     ecut=    80.00 Ry     beta= 0.30
     Davidson diagonalization with overlap
     ethr =  1.92E-04,  avg # of iterations =  3.3

     total cpu time spent up to now is      468.0 secs

     total energy              =    -299.06456781 Ry
     Harris-Foulkes estimate   =    -299.06591144 Ry
     estimated scf accuracy    <       0.02175463 Ry

     iteration #  5     ecut=    80.00 Ry     beta= 0.30
     Davidson diagonalization with overlap
     ethr =  3.02E-05,  avg # of iterations =  3.7

     total cpu time spent up to now is      563.7 secs

     total energy              =    -299.05991006 Ry
     Harris-Foulkes estimate   =    -299.06538755 Ry
     estimated scf accuracy    <       0.02253830 Ry

     iteration #  6     ecut=    80.00 Ry     beta= 0.30
     Davidson diagonalization with overlap
     ethr =  3.02E-05,  avg # of iterations =  1.7

     total cpu time spent up to now is      647.2 secs

     total energy              =    -299.06017902 Ry
     Harris-Foulkes estimate   =    -299.06115274 Ry
     estimated scf accuracy    <       0.03520221 Ry

     iteration #  7     ecut=    80.00 Ry     beta= 0.30
     Davidson diagonalization with overlap
     ethr =  3.02E-05,  avg # of iterations =  1.0

     negative rho (up, down):  2.048E-04 0.000E+00

     total cpu time spent up to now is      727.6 secs

     total energy              =    -299.05705524 Ry
     Harris-Foulkes estimate   =    -299.06032167 Ry
     estimated scf accuracy    <       0.03031319 Ry

     iteration #  8     ecut=    80.00 Ry     beta= 0.30
     Davidson diagonalization with overlap
     ethr =  3.02E-05,  avg # of iterations =  2.2

     negative rho (up, down):  4.170E-03 0.000E+00

     total cpu time spent up to now is      815.6 secs

     total energy              =    -299.05841697 Ry
     Harris-Foulkes estimate   =    -299.05831518 Ry
     estimated scf accuracy    <       0.00405106 Ry

     iteration #  9     ecut=    80.00 Ry     beta= 0.30
     Davidson diagonalization with overlap
     ethr =  5.63E-06,  avg # of iterations =  4.5

     negative rho (up, down):  2.176E-02 0.000E+00

     total cpu time spent up to now is      928.0 secs

     total energy              =    -299.05728519 Ry
     Harris-Foulkes estimate   =    -299.05896614 Ry
     estimated scf accuracy    <       0.02007662 Ry

     iteration # 10     ecut=    80.00 Ry     beta= 0.30
     Davidson diagonalization with overlap
     ethr =  5.63E-06,  avg # of iterations =  2.9

     negative rho (up, down):  2.085E-02 0.000E+00

     total cpu time spent up to now is     1028.8 secs

     total energy              =    -299.05786134 Ry
     Harris-Foulkes estimate   =    -299.05805429 Ry
     estimated scf accuracy    <       0.00154281 Ry

     iteration # 11     ecut=    80.00 Ry     beta= 0.30
     Davidson diagonalization with overlap
     ethr =  2.14E-06,  avg # of iterations =  1.0

     negative rho (up, down):  1.036E-02 0.000E+00

     total cpu time spent up to now is     1109.2 secs

     total energy              =    -299.05767170 Ry
     Harris-Foulkes estimate   =    -299.05788770 Ry
     estimated scf accuracy    <       0.00066239 Ry

     iteration # 12     ecut=    80.00 Ry     beta= 0.30
     Davidson diagonalization with overlap
     ethr =  9.20E-07,  avg # of iterations =  2.6

     negative rho (up, down):  4.495E-03 0.000E+00

     total cpu time spent up to now is     1215.3 secs

     total energy              =    -299.05766234 Ry
     Harris-Foulkes estimate   =    -299.05780079 Ry
     estimated scf accuracy    <       0.00074644 Ry

     iteration # 13     ecut=    80.00 Ry     beta= 0.30
     Davidson diagonalization with overlap
     ethr =  9.20E-07,  avg # of iterations =  2.0

     negative rho (up, down):  7.071E-04 0.000E+00

     total cpu time spent up to now is     1302.3 secs

     total energy              =    -299.05767710 Ry
     Harris-Foulkes estimate   =    -299.05770212 Ry
     estimated scf accuracy    <       0.00004484 Ry

     iteration # 14     ecut=    80.00 Ry     beta= 0.30
     Davidson diagonalization with overlap
     ethr =  6.23E-08,  avg # of iterations =  3.2

     negative rho (up, down):  6.615E-04 0.000E+00

     total cpu time spent up to now is     1404.2 secs

     total energy              =    -299.05768470 Ry
     Harris-Foulkes estimate   =    -299.05768267 Ry
     estimated scf accuracy    <       0.00003106 Ry

     iteration # 15     ecut=    80.00 Ry     beta= 0.30
     Davidson diagonalization with overlap
     ethr =  4.31E-08,  avg # of iterations =  1.0

     negative rho (up, down):  2.389E-04 0.000E+00

     total cpu time spent up to now is     1484.8 secs

     total energy              =    -299.05768074 Ry
     Harris-Foulkes estimate   =    -299.05768487 Ry
     estimated scf accuracy    <       0.00002345 Ry

     iteration # 16     ecut=    80.00 Ry     beta= 0.30
     Davidson diagonalization with overlap
     ethr =  3.26E-08,  avg # of iterations =  2.0

     negative rho (up, down):  3.677E-05 0.000E+00

     total cpu time spent up to now is     1574.6 secs

     total energy              =    -299.05768205 Ry
     Harris-Foulkes estimate   =    -299.05768229 Ry
     estimated scf accuracy    <       0.00000101 Ry

     iteration # 17     ecut=    80.00 Ry     beta= 0.30
     Davidson diagonalization with overlap
     ethr =  1.40E-09,  avg # of iterations =  3.4

     negative rho (up, down):  4.267E-05 0.000E+00

     total cpu time spent up to now is     1685.2 secs

     total energy              =    -299.05768225 Ry
     Harris-Foulkes estimate   =    -299.05768229 Ry
     estimated scf accuracy    <       0.00000371 Ry

     iteration # 18     ecut=    80.00 Ry     beta= 0.30
     Davidson diagonalization with overlap
     ethr =  1.40E-09,  avg # of iterations =  1.0

     negative rho (up, down):  3.694E-05 0.000E+00

     total cpu time spent up to now is     1766.6 secs

     total energy              =    -299.05768216 Ry
     Harris-Foulkes estimate   =    -299.05768225 Ry
     estimated scf accuracy    <       0.00000304 Ry

     iteration # 19     ecut=    80.00 Ry     beta= 0.30
     Davidson diagonalization with overlap
     ethr =  1.40E-09,  avg # of iterations =  1.0

     negative rho (up, down):  5.246E-05 0.000E+00

     total cpu time spent up to now is     1848.8 secs

     total energy              =    -299.05768205 Ry
     Harris-Foulkes estimate   =    -299.05768216 Ry
     estimated scf accuracy    <       0.00000143 Ry

     iteration # 20     ecut=    80.00 Ry     beta= 0.30
     Davidson diagonalization with overlap
     ethr =  1.40E-09,  avg # of iterations =  1.5

     negative rho (up, down):  6.671E-06 0.000E+00

     total cpu time spent up to now is     1930.6 secs

     End of self-consistent calculation

          k = 0.0000 0.0000 0.0000 ( 53125 PWs)   bands (ev):

    -8.0533  -7.8685  -7.5692  -7.1549  -6.6242  -5.9801  -5.2299  -4.3804
    -3.4298  -2.3864  -1.2549   0.0381   0.2286   0.2286   0.3985   0.3985
     0.6442   0.6736   0.6736   1.0551   1.0551   1.5454   1.5454   1.5906
     1.5907   1.7670   1.7671   2.0510   2.0510   2.1434   2.1434   2.4369
     2.4369   2.5621   2.8437   2.8437   2.9083   2.9083   3.6076   3.6076
     3.6416   3.6416   3.8851

          k = 0.0000 0.0625 0.0000 ( 53127 PWs)   bands (ev):

    -8.0175  -7.8328  -7.5335  -7.1194  -6.5887  -5.9448  -5.1947  -4.3454
    -3.3951  -2.3519  -1.2207  -0.3435  -0.1703   0.0722   0.1099   0.2614
     0.4313   0.4976   0.6774   0.7064   0.9939   1.0879   1.5782   1.5907
     1.6283   1.8013   2.0861   2.1762   2.2234   2.2628   2.3977   2.5132
     2.5954   2.6875   2.8766   2.8775   3.0776   3.2364   3.4101   3.6744
     3.8123   3.9176   4.0459

          k = 0.0000 0.1250 0.0000 ( 53115 PWs)   bands (ev):

    -7.9102  -7.7256  -7.4266  -7.0127  -6.4824  -5.8389  -5.0893  -4.2406
    -3.2909  -2.2485  -1.2478  -1.1182  -1.0721  -0.7877  -0.3945   0.1090
     0.1742   0.3599   0.5298   0.7189   0.7767   0.8049   1.1864   1.4228
     1.6766   1.7268   1.9046   2.1025   2.2747   2.3177   2.5657   2.6950
     2.9750   3.1645   3.2419   3.3102   3.4827   3.6808   3.7728   3.8057
     4.0146   4.0709   4.1844

          k = 0.0000 0.1875 0.0000 ( 53146 PWs)   bands (ev):

    -7.7316  -7.5472  -7.2485  -6.8350  -6.3054  -5.6626  -4.9139  -4.0660
    -3.1175  -2.1466  -2.0763  -1.9692  -1.6821  -1.2850  -0.9475  -0.7764
    -0.1596   0.3441   0.5239   0.5569   0.6939   0.9422   0.9690   1.3505
     1.3594   1.8408   1.8969   2.0340   2.2736   2.3566   2.4388   2.8599
     2.8814   3.1391   3.3303   3.3647   3.9213   3.9368   4.1739   4.4198
     4.5127   4.5779   4.6996

          k = 0.0000 0.2500 0.0000 ( 53102 PWs)   bands (ev):

    -7.4818  -7.2977  -6.9995  -6.5867  -6.0579  -5.4161  -4.6685  -3.8221
    -2.9975  -2.8750  -2.8188  -2.5296  -2.1295  -1.8356  -1.6169  -0.9951
    -0.7089  -0.2715   0.5450   0.5812   0.7537   0.9236   1.1737   1.1988
     1.4466   1.5803   2.0705   2.1173   2.3093   2.3464   2.6686   2.8091
     3.0738   3.0876   3.3688   3.5669   3.6246   4.1664   4.1777   4.3895
     4.7393   4.9588   5.0049

          k = 0.0000 0.3125 0.0000 ( 53088 PWs)   bands (ev):

    -7.1613  -6.9776  -6.6799  -6.2680  -5.7403  -5.0998  -4.3538  -3.7899
    -3.6101  -3.5090  -3.3191  -2.9165  -2.5640  -2.4007  -1.7748  -1.5268
    -1.0461  -0.4030  -0.2222   0.6959   0.8848   1.0491   1.2191   1.4712
     1.4942   1.6865   1.8758   2.3660   2.4307   2.4893   2.9640   2.9919
     2.9964   3.3698   3.3721   3.6641   3.8576   4.1389   4.2030   4.3730
     4.4336   4.4615   4.6480

          k = 0.0000 0.3750 0.0000 ( 53154 PWs)   bands (ev):

    -6.7706  -6.5873  -6.2904  -5.8795  -5.3531  -4.7142  -4.5193  -4.3387
    -4.0462  -3.9700  -3.6414  -3.1274  -3.1228  -2.4935  -2.1848  -1.7607
    -1.1506  -0.9315  -0.0304  -0.0054   1.0059   1.2537   1.4103   1.5802
     1.8341   1.8554   2.0751   2.2369   2.7272   2.7380   3.0838   3.3251
     3.3448   3.4954   3.5129   3.6828   3.6920   3.7322   3.9366   3.9579
     4.0251   4.2500   4.3392

          k = 0.0000 0.4375 0.0000 ( 53154 PWs)   bands (ev):

    -6.3102  -6.1274  -5.8314  -5.4217  -5.1835  -5.0021  -4.8968  -4.7082
    -4.3016  -4.2599  -3.7806  -3.5179  -3.1484  -2.6779  -2.4120  -1.7383
    -1.5786  -0.7076  -0.6470   0.3733   0.4079   1.4715   1.6852   1.8372
     2.0072   2.2621   2.2824   2.6639   2.6702   2.8885   3.0585   3.1540
     3.2949   3.3336   3.3568   3.5044   3.7150   3.7519   3.7751   3.9254
     4.1735   4.2049   4.4517

          k = 0.0000-0.5000 0.0000 ( 53122 PWs)   bands (ev):

    -5.7809  -5.7808  -5.5987  -5.5987  -5.3037  -5.3037  -4.8955  -4.8954
    -4.3724  -4.3724  -3.7377  -3.7376  -2.9983  -2.9982  -2.1613  -2.1612
    -1.2253  -1.2252  -0.1991  -0.1990   0.9099   0.9099   2.1721   2.1722
     2.3299   2.3300   2.4999   2.5000   2.7536   2.7536   2.7751   2.7751
     3.1565   3.1566   3.6466   3.6467   3.7213   3.7214   3.9644   3.9645
     4.2443   4.2443   4.2653

          k = 0.0625 0.0625 0.0000 ( 53111 PWs)   bands (ev):

    -7.9818  -7.7971  -7.4979  -7.0838  -6.5533  -5.9095  -5.1596  -4.3104
    -3.3604  -2.3174  -1.1865  -0.3101  -0.3101  -0.1370  -0.1370   0.1062
     0.1430   0.1430   0.5304   0.5304   0.7105   1.0261   1.0261   1.6326
     1.6326   2.2572   2.2572   2.3358   2.3358   2.4368   2.4368   2.6286
     2.6998   2.6998   3.0784   3.0784   3.1564   3.1564   3.6278   3.6278
     3.9497   4.0851   4.0852

          k = 0.0625 0.1250 0.0000 ( 53106 PWs)   bands (ev):

    -7.8745  -7.6899  -7.3909  -6.9771  -6.4470  -5.8037  -5.0542  -4.2057
    -3.2562  -2.2140  -1.2139  -1.0840  -1.0382  -0.7541  -0.3614  -0.2097
    -0.0374   0.1417   0.2082   0.2426   0.6300   0.7470   0.8098   1.1366
     1.4511   1.7628   2.2640   2.3613   2.4489   2.5249   2.7276   2.8260
     3.0462   3.2387   3.3454   3.4031   3.5077   3.7409   3.7936   4.0434
     4.0450   4.2229   4.2923

          k = 0.0625 0.1875 0.0000 ( 53129 PWs)   bands (ev):

    -7.6959  -7.5115  -7.2129  -6.7995  -6.2700  -5.6274  -4.8788  -4.0312
    -3.0828  -2.1123  -2.0419  -1.9350  -1.6480  -1.2511  -0.9134  -0.7429
    -0.1280  -0.0424   0.1294   0.3779   0.4094   0.5778   0.8129   0.9752
     1.2572   1.4570   1.9132   2.2980   2.5210   2.6151   2.7132   2.8907
     2.9256   3.4152   3.4402   3.4421   3.9189   4.1976   4.3046   4.4256
     4.5257   4.5520   4.7165

          k = 0.0625 0.2500 0.0000 ( 53141 PWs)   bands (ev):

    -7.4462  -7.2621  -6.9639  -6.5513  -6.0226  -5.3809  -4.6335  -3.7873
    -2.9630  -2.8404  -2.7844  -2.4952  -2.0953  -1.8013  -1.5829  -0.9615
    -0.6749  -0.2394   0.1903   0.3629   0.5492   0.6147   0.6727   1.0225
     1.2067   1.5158   1.5438   2.1437   2.4673   2.7637   2.8523   2.9018
     3.1122   3.3050   3.6158   3.6638   3.7187   4.1547   4.3396   4.4687
     4.5297   4.7194   4.7519

          k = 0.0625 0.3125 0.0000 ( 53123 PWs)   bands (ev):

    -7.1258  -6.9421  -6.6445  -6.2327  -5.7050  -5.0647  -4.3188  -3.7551
    -3.5754  -3.4743  -3.2845  -2.8820  -2.5295  -2.3664  -1.7407  -1.4926
    -1.0125  -0.3692  -0.1901   0.4900   0.6399   0.7470   0.9177   0.9396
     1.3516   1.5039   1.7530   1.8391   2.4398   2.7782   3.0330   3.1469
     3.3398   3.3556   3.5776   3.7803   3.8282   3.9461   3.9612   4.1224
     4.1575   4.4723   4.5075

          k = 0.0625 0.3750 0.0000 ( 53123 PWs)   bands (ev):

    -6.7351  -6.5519  -6.2550  -5.8442  -5.3179  -4.6792  -4.4844  -4.3038
    -4.0114  -3.9352  -3.6067  -3.0928  -3.0883  -2.4592  -2.1504  -1.7266
    -1.1165  -0.8979   0.0031   0.0263   0.8502   1.0220   1.0269   1.2849
     1.3479   1.7087   1.8666   2.1462   2.2025   2.8067   2.9634   3.1541
     3.2128   3.4353   3.5044   3.6530   3.6749   3.8115   3.8218   3.9376
     3.9588   4.3182   4.3270

          k = 0.0625 0.4375 0.0000 ( 53148 PWs)   bands (ev):

    -6.2748  -6.0921  -5.7961  -5.3866  -5.1484  -4.9670  -4.8618  -4.6732
    -4.2667  -4.2250  -3.7459  -3.4832  -3.1138  -2.6434  -2.3777  -1.7041
    -1.5445  -0.6739  -0.6135   0.4041   0.4404   1.2851   1.3847   1.5984
     1.7065   1.7552   2.1383   2.2921   2.3680   2.5345   2.6271   2.7791
     2.8104   3.1965   3.2200   3.3595   3.6902   3.8784   3.9517   4.0763
     4.1471   4.2934   4.3627

          k = 0.0625-0.5000 0.0000 ( 53190 PWs)   bands (ev):

    -5.7456  -5.7456  -5.5635  -5.5635  -5.2686  -5.2685  -4.8605  -4.8604
    -4.3375  -4.3375  -3.7029  -3.7028  -2.9637  -2.9636  -2.1269  -2.1269
    -1.1913  -1.1912  -0.1660  -0.1659   0.9388   0.9388   1.7616   1.7616
     1.9751   1.9751   2.2419   2.2419   2.2562   2.2563   2.6328   2.6328
     2.7885   2.7885   3.1307   3.1308   3.7352   3.7352   4.2204   4.2205
     4.4405   4.4405   4.5395

          k = 0.1250 0.1250 0.0000 ( 53105 PWs)   bands (ev):

    -7.7673  -7.5829  -7.2841  -6.8706  -6.3408  -5.6979  -4.9489  -4.1009
    -3.1522  -2.1107  -1.1123  -1.1122  -0.9816  -0.9369  -0.9369  -0.6533
    -0.6533  -0.2612  -0.2612   0.2395   0.2395   0.3099   0.8586   0.8586
     0.9090   1.5907   1.5907   2.3857   2.3857   2.8241   3.2655   3.2656
     3.4390   3.4390   3.6236   3.6236   3.8537   3.8538   4.1315   4.3177
     4.3178   4.3761   4.3761

          k = 0.1250 0.1875 0.0000 ( 53090 PWs)   bands (ev):

    -7.5888  -7.4046  -7.1061  -6.6931  -6.1639  -5.5217  -4.7736  -3.9266
    -2.9789  -2.0097  -1.9387  -1.8325  -1.5459  -1.1500  -0.9428  -0.8112
    -0.7690  -0.6420  -0.4854  -0.0937  -0.0328   0.4229   0.4791   0.6821
     1.0621   1.0743   1.5261   1.7531   2.4158   2.5687   2.9786   3.3523
     3.4898   3.6189   3.7557   4.1354   4.2090   4.3884   4.4368   4.4863
     4.6040   4.6622   4.6918

          k = 0.1250 0.2500 0.0000 ( 53137 PWs)   bands (ev):

    -7.3393  -7.1554  -6.8574  -6.4450  -5.9166  -5.2755  -4.5286  -3.6829
    -2.8595  -2.7367  -2.6810  -2.3922  -1.9927  -1.6984  -1.4811  -0.8622
    -0.7059  -0.5731  -0.5324  -0.2493  -0.1507   0.1610   0.5764   0.7149
     0.7787   1.2763   1.3055   1.6151   1.9836   2.6104   2.7901   3.1394
     3.6303   3.6930   3.6984   3.7076   3.8219   4.0147   4.1278   4.3415
     4.4015   4.6185   4.6846

          k = 0.1250 0.3125 0.0000 ( 53145 PWs)   bands (ev):

    -7.0191  -6.8355  -6.5382  -6.1266  -5.5993  -4.9595  -4.2141  -3.6510
    -3.4714  -3.3701  -3.1808  -2.7786  -2.4260  -2.2635  -1.6387  -1.3901
    -0.9126  -0.4032  -0.2681  -0.2288  -0.1117   0.0790   0.4323   0.8721
     0.9704   1.0153   1.5749   1.6021   1.8562   2.2891   2.7749   2.9176
     2.9806   3.1174   3.2659   3.6071   3.6557   3.9124   4.0506   4.1558
     4.3556   4.4188   4.7049

          k = 0.1250 0.3750 0.0000 ( 53147 PWs)   bands (ev):

    -6.6288  -6.4456  -6.1490  -5.7385  -5.2125  -4.5742  -4.3797  -4.1992
    -3.9070  -3.8307  -3.5027  -2.9889  -2.9846  -2.3561  -2.0474  -1.6245
    -1.0146  -0.7981  -0.0330   0.0785   0.1028   0.1853   0.4189   0.8436
     1.1721   1.3345   1.3703   1.9378   1.9620   2.1288   2.2615   2.2970
     2.5754   2.6488   2.9645   3.4525   3.4607   3.4998   3.9327   4.0678
     4.0750   4.3748   4.5362

          k = 0.1250 0.4375 0.0000 ( 53119 PWs)   bands (ev):

    -6.1688  -5.9862  -5.6904  -5.2812  -5.0432  -4.8619  -4.7567  -4.5684
    -4.1622  -4.1204  -3.6417  -3.3791  -3.0101  -2.5399  -2.2746  -1.6015
    -1.4426  -0.5730  -0.5144   0.3892   0.4963   0.5353   0.5744   0.9059
     1.2697   1.4315   1.6350   1.6705   1.7669   1.8768   1.9472   2.3270
     2.3758   2.3995   2.8345   2.8695   3.1168   3.4305   3.4433   3.9152
     4.1357   4.3494   4.7705

          k = 0.1250-0.5000 0.0000 ( 53126 PWs)   bands (ev):

    -5.6400  -5.6400  -5.4580  -5.4580  -5.1633  -5.1632  -4.7554  -4.7554
    -4.2328  -4.2328  -3.5987  -3.5986  -2.8601  -2.8600  -2.0241  -2.0240
    -1.0897  -1.0897  -0.0682  -0.0682   0.9008   0.9009   0.9458   0.9458
     1.1981   1.1982   1.3832   1.3832   1.7686   1.7687   2.2501   2.2501
     2.3592   2.3593   2.8217   2.8218   2.9406   2.9406   3.5890   3.5891
     4.3959   4.3959   4.7406

          k = 0.1875 0.1875 0.0000 ( 53109 PWs)   bands (ev):

    -7.4106  -7.2265  -6.9284  -6.5158  -5.9872  -5.3458  -4.5985  -3.7525
    -2.8059  -1.8388  -1.8388  -1.7670  -1.6621  -1.6621  -1.3762  -1.3761
    -0.9810  -0.9810  -0.6412  -0.4765  -0.4765   0.1495   0.1495   0.6471
     0.8883   0.8883   1.2393   1.6913   1.6913   2.5992   2.5993   3.0724
     3.5931   3.5931   3.6559   3.6566   3.9669   4.3540   4.5636   4.6129
     4.6132   4.7936   4.8580

          k = 0.1875 0.2500 0.0000 ( 53097 PWs)   bands (ev):

    -7.1613  -6.9776  -6.6799  -6.2680  -5.7403  -5.0998  -4.3538  -3.5091
    -2.6873  -2.5641  -2.5091  -2.2207  -1.8224  -1.5996  -1.5271  -1.4249
    -1.3110  -1.1390  -0.7444  -0.6981  -0.4039  -0.2228   0.0237   0.4190
     0.8715   0.8801   1.1165   1.4698   1.7697   1.9399   2.6619   2.7357
     2.8726   2.8879   3.1593   3.4891   3.5503   3.7509   3.9530   4.0518
     4.6319   4.7864   4.7945

          k = 0.1875 0.3125 0.0000 ( 53134 PWs)   bands (ev):

    -6.8416  -6.6582  -6.3611  -5.9501  -5.4234  -4.7842  -4.0397  -3.4776
    -3.2983  -3.1968  -3.0080  -2.6065  -2.2538  -2.0924  -1.4704  -1.2928
    -1.2195  -1.1183  -0.8331  -0.7543  -0.4200  -0.1004  -0.0093   0.1877
     0.7023   1.0217   1.1680   1.4138   1.7636   1.9564   2.0294   2.1256
     2.2254   2.4050   2.7954   3.1199   3.1365   3.2927   3.7518   3.9016
     4.1331   4.3528   4.6141

          k = 0.1875 0.3750 0.0000 ( 53123 PWs)   bands (ev):

    -6.4517  -6.2687  -5.9724  -5.5624  -5.0370  -4.3995  -4.2054  -4.0251
    -3.7332  -3.6568  -3.3294  -2.8161  -2.8122  -2.1848  -1.8759  -1.4556
    -0.9202  -0.8453  -0.7447  -0.6487  -0.4367  -0.0801   0.2654   0.3386
     0.4618   1.0700   1.1848   1.3280   1.4325   1.6176   1.7100   1.7887
     2.0855   2.1414   2.4033   2.6009   2.6226   3.2119   3.4473   3.7603
     3.9041   4.1224   4.1834

          k = 0.1875 0.4375 0.0000 ( 53144 PWs)   bands (ev):

    -5.9922  -5.8098  -5.5144  -5.1056  -4.8681  -4.6870  -4.5818  -4.3937
    -3.9880  -3.9462  -3.4682  -3.2058  -2.8375  -2.3678  -2.1033  -1.4312
    -1.2739  -0.4801  -0.4069  -0.3854  -0.2683  -0.0258   0.4013   0.5918
     0.6183   0.7054   0.8841   0.8955   1.0781   1.4651   1.5006   1.8032
     1.9400   2.0393   2.2154   2.5025   2.6316   3.0215   3.0668   3.2931
     3.6233   3.9610   4.1026

          k = 0.1875-0.5000 0.0000 ( 53118 PWs)   bands (ev):

    -5.4641  -5.4641  -5.2823  -5.2823  -4.9879  -4.9878  -4.5805  -4.5805
    -4.0586  -4.0585  -3.4252  -3.4251  -2.6876  -2.6875  -1.8530  -1.8530
    -0.9219  -0.9219   0.0068   0.0068   0.0986   0.0987   0.1973   0.1974
     0.5303   0.5304   0.8972   0.8973   1.2372   1.2372   1.3967   1.3968
     2.0083   2.0084   2.4801   2.4802   2.7542   2.7543   3.0365   3.0366
     3.5560   3.5561   4.4384

          k = 0.2500 0.2500 0.0000 ( 53157 PWs)   bands (ev):

    -6.9126  -6.7291  -6.4319  -6.0207  -5.4937  -4.8543  -4.1094  -3.2661
    -2.4465  -2.4465  -2.3227  -2.2689  -2.2689  -1.9813  -1.9813  -1.5839
    -1.5839  -1.2879  -1.0763  -1.0763  -0.4461  -0.4461  -0.1683   0.2940
     0.2940   1.1005   1.1024   1.1024   1.6975   1.8964   2.0169   2.0169
     2.0659   2.3456   2.7364   3.0221   3.0221   3.2341   3.6889   3.8435
     4.1089   4.1089   4.5566

          k = 0.2500 0.3125 0.0000 ( 53162 PWs)   bands (ev):

    -6.5933  -6.4102  -6.1136  -5.7032  -5.1774  -4.5392  -3.7959  -3.2353
    -3.0563  -2.9544  -2.7667  -2.3665  -2.1374  -2.0133  -1.9619  -1.8526
    -1.6743  -1.2775  -1.2365  -0.9816  -0.7534  -0.5095  -0.1125   0.1302
     0.3375   0.5914   1.0580   1.2400   1.3086   1.4199   1.4859   1.5864
     1.9593   2.0124   2.2122   2.3736   2.4788   3.0907   3.2373   3.4497
     3.7827   3.9981   4.3234

          k = 0.2500 0.3750 0.0000 ( 53145 PWs)   bands (ev):

    -6.2041  -6.0214  -5.7256  -5.3162  -4.7917  -4.1552  -3.9617  -3.7817
    -3.4904  -3.4138  -3.0874  -2.5746  -2.5714  -1.9469  -1.7606  -1.6365
    -1.5852  -1.2986  -1.2272  -0.8842  -0.6107  -0.4706  -0.2847   0.2418
     0.4003   0.4201   0.5534   0.6896   0.8879   0.9566   1.2757   1.5663
     1.7469   1.7717   1.8443   2.3071   2.4421   2.6642   2.6867   3.1076
     3.6870   3.9187   3.9214

          k = 0.2500 0.4375 0.0000 ( 53163 PWs)   bands (ev):

    -5.7454  -5.5633  -5.2684  -4.8602  -4.6232  -4.4424  -4.3373  -4.1497
    -3.7446  -3.7027  -3.2258  -2.9637  -2.5965  -2.1275  -1.8650  -1.3182
    -1.1944  -1.1418  -1.0539  -0.8338  -0.4735  -0.2548  -0.1683  -0.0674
    -0.0615   0.0679   0.2707   0.6399   0.6790   0.9264   0.9691   1.1408
     1.4006   1.7541   2.0066   2.2151   2.2377   2.5024   2.7728   3.0604
     3.3064   3.3798   3.7905

          k = 0.2500-0.5000 0.0000 ( 53124 PWs)   bands (ev):

    -5.2182  -5.2181  -5.0367  -5.0366  -4.7428  -4.7427  -4.3361  -4.3360
    -3.8150  -3.8149  -3.1828  -3.1827  -2.4467  -2.4467  -1.6152  -1.6151
    -0.8085  -0.8085  -0.7205  -0.7204  -0.5992  -0.5991  -0.3523  -0.3522
     0.0745   0.0745   0.3681   0.3682   0.5713   0.5713   1.1775   1.1775
     1.4708   1.4709   1.8948   1.8948   2.7027   2.7028   2.7393   2.7394
     3.2962   3.2963   3.6471

          k = 0.3125 0.3125 0.0000 ( 53201 PWs)   bands (ev):

    -6.2747  -6.0920  -5.7960  -5.3865  -4.8617  -4.2249  -3.4832  -2.9244
    -2.9244  -2.7460  -2.7460  -2.6436  -2.4573  -2.4573  -2.0582  -2.0582
    -1.7051  -1.5482  -1.5482  -0.9153  -0.9153  -0.6787  -0.1757  -0.1757
     0.3358   0.3539   0.6240   0.6370   0.6370   0.8237   1.2118   1.5555
     1.5555   1.6818   1.7789   2.2416   2.3783   2.5656   2.5656   3.0449
     3.6593   3.6593   3.8565

          k = 0.3125 0.3750 0.0000 ( 53199 PWs)   bands (ev):

    -5.8863  -5.7041  -5.4088  -5.0003  -4.4769  -3.8417  -3.6490  -3.4694
    -3.1789  -3.1020  -2.7774  -2.5451  -2.3691  -2.2650  -2.2617  -2.0804
    -1.6819  -1.6431  -1.3309  -1.1564  -0.9124  -0.5173  -0.3869  -0.3022
    -0.1925  -0.0672   0.1390   0.1918   0.5095   0.8344   0.8384   1.0111
     1.0240   1.6252   1.8142   1.9812   2.0817   2.3745   2.6407   2.8439
     3.0611   3.1796   3.9353

          k = 0.3125 0.4375 0.0000 ( 53184 PWs)   bands (ev):

    -5.4287  -5.2470  -4.9526  -4.5453  -4.3090  -4.1285  -4.0235  -3.8365
    -3.4325  -3.3904  -2.9151  -2.6533  -2.2889  -2.0985  -1.9225  -1.8204
    -1.6349  -1.5666  -1.2200  -1.0078  -0.9224  -0.8017  -0.7996  -0.6270
    -0.5503  -0.1243  -0.0919   0.1647   0.2164   0.3741   0.6253   0.9809
     1.2325   1.2702   1.4429   1.6997   2.3340   2.3604   2.5088   2.5407
     3.0992   3.3632   3.4555

          k = 0.3125-0.5000 0.0000 ( 53132 PWs)   bands (ev):

    -4.9026  -4.9026  -4.7215  -4.7214  -4.4282  -4.4281  -4.0224  -4.0223
    -3.5025  -3.5025  -2.8720  -2.8720  -2.1389  -2.1389  -1.5865  -1.5864
    -1.4096  -1.4096  -1.3249  -1.3249  -1.1018  -1.1018  -0.7385  -0.7384
    -0.3402  -0.3402  -0.1984  -0.1983   0.4146   0.4146   0.6569   0.6570
     1.1381   1.1382   1.7399   1.7400   1.9773   1.9773   2.7989   2.7990
     3.1200   3.1201   3.5274

          k = 0.3750 0.3750 0.0000 ( 53236 PWs)   bands (ev):

    -5.4990  -5.3171  -5.0227  -4.6152  -4.0931  -3.4597  -3.2679  -3.2678
    -3.0890  -3.0890  -2.7994  -2.7994  -2.7222  -2.3992  -2.3991  -1.8889
    -1.8875  -1.8875  -1.2529  -1.2529  -1.0745  -0.9898  -0.8667  -0.6167
    -0.5142  -0.5142  -0.1910   0.0967   0.3017   0.3017   0.3080   0.9150
     1.2032   1.2229   1.2230   1.6343   2.2360   2.2360   2.4438   2.4742
     3.0334   3.3330   3.3330

          k = 0.3750 0.4375 0.0000 ( 53180 PWs)   bands (ev):

    -5.0426  -4.8613  -4.5677  -4.1615  -3.9259  -3.7460  -3.6411  -3.4548
    -3.0525  -3.0100  -2.8186  -2.6421  -2.5356  -2.3527  -2.2761  -1.9532
    -1.9153  -1.7213  -1.5442  -1.4607  -1.4269  -1.2365  -1.1821  -0.8715
    -0.7893  -0.4771  -0.3386  -0.3323  -0.0766   0.2816   0.5218   0.5690
     0.7580   1.0061   1.5470   1.6061   1.7174   1.8462   2.5794   2.6674
     2.7993   2.9891   3.3956

          k = 0.3750-0.5000 0.0000 ( 53234 PWs)   bands (ev):

    -4.5179  -4.5179  -4.3373  -4.3372  -4.0448  -4.0447  -3.6401  -3.6401
    -3.1220  -3.1219  -2.4947  -2.4947  -2.3023  -2.3023  -2.1260  -2.1260
    -1.8378  -1.8378  -1.7708  -1.7708  -1.4227  -1.4226  -1.0009  -1.0009
    -0.8340  -0.8339  -0.2935  -0.2935   0.0134   0.0135   0.4251   0.4251
     1.0313   1.0314   1.2441   1.2442   2.1348   2.1348   2.1631   2.1632
     3.1674   3.1674   3.3998

          k = 0.4375 0.4375 0.0000 ( 53278 PWs)   bands (ev):

    -4.5876  -4.4069  -4.1142  -3.7094  -3.4747  -3.4747  -3.2955  -3.2955
    -3.1910  -3.0055  -3.0055  -2.6045  -2.6045  -2.5634  -2.3704  -2.1940
    -2.0918  -2.0918  -1.9056  -1.8389  -1.4904  -1.4563  -1.4563  -1.0674
    -0.9032  -0.7182  -0.7182  -0.3609  -0.0544   0.0995   0.0995   0.3581
     0.9642   1.0224   1.0224   1.1777   2.0371   2.0371   2.0682   2.0972
     3.1019   3.1359   3.1359

          k = 0.4375-0.5000 0.0000 ( 53318 PWs)   bands (ev):

    -4.0647  -4.0646  -3.8846  -3.8846  -3.5932  -3.5931  -3.1903  -3.1903
    -2.9558  -2.9557  -2.7791  -2.7790  -2.6729  -2.6729  -2.4893  -2.4893
    -2.0893  -2.0893  -2.0518  -2.0517  -1.5627  -1.5626  -1.3174  -1.3173
    -0.9260  -0.9259  -0.4748  -0.4747  -0.2113  -0.2113   0.4339   0.4339
     0.6244   0.6245   1.4129   1.4130   1.5849   1.5849   2.4467   2.4467
     2.6678   2.6679   3.5423

          k =-0.5000-0.5000 0.0000 ( 53320 PWs)   bands (ev):

    -3.5438  -3.5437  -3.5437  -3.5437  -3.3645  -3.3645  -3.3645  -3.3644
    -3.0744  -3.0743  -3.0743  -3.0742  -2.6731  -2.6731  -2.6731  -2.6730
    -2.1601  -2.1600  -2.1600  -2.1600  -1.5243  -1.5243  -1.5243  -1.5242
    -0.7865  -0.7864  -0.7864  -0.7864   0.0319   0.0320   0.0320   0.0321
     0.9553   0.9554   0.9554   0.9554   1.9705   1.9706   1.9706   1.9707
     3.0700   3.0700   3.0701

     the Fermi energy is     3.1393 ev

!    total energy              =    -299.05768187 Ry
     Harris-Foulkes estimate   =    -299.05768207 Ry
     estimated scf accuracy    <       0.00000025 Ry

     The total energy is the sum of the following terms:

     one-electron contribution =   -2211.59530742 Ry
     hartree contribution      =    1128.88655395 Ry
     xc contribution           =    -240.42396289 Ry
     ewald contribution        =    1024.07462694 Ry
     smearing contrib. (-TS)   =       0.00040755 Ry

     convergence has been achieved in  20 iterations

     negative rho (up, down):  6.671E-06 0.000E+00

     Forces acting on atoms (cartesian axes, Ry/au):

     atom    1 type  1   force =     0.00000000    0.00000000   -0.00327754
     atom    2 type  1   force =     0.00000000    0.00000000   -0.00328174
     atom    3 type  1   force =     0.00000000    0.00000000    0.00181283
     atom    4 type  1   force =     0.00000000    0.00000000    0.00181283
     atom    5 type  1   force =     0.00000000    0.00000000    0.00061312
     atom    6 type  1   force =     0.00000000    0.00000000    0.00062557
     atom    7 type  1   force =     0.00000000    0.00000000    0.00087987
     atom    8 type  1   force =     0.00000000    0.00000000    0.00087987
     atom    9 type  1   force =     0.00000000    0.00000000   -0.00013803
     atom   10 type  1   force =     0.00000000    0.00000000   -0.00013758
     atom   11 type  1   force =     0.00000000    0.00000000   -0.00022665
     atom   12 type  1   force =     0.00000000    0.00000000   -0.00022665
     atom   13 type  1   force =     0.00000000    0.00000000    0.00022720
     atom   14 type  1   force =     0.00000000    0.00000000    0.00022116
     atom   15 type  1   force =     0.00000000    0.00000000    0.00014283
     atom   16 type  1   force =     0.00000000    0.00000000    0.00014283
     atom   17 type  1   force =     0.00000000    0.00000000   -0.00088213
     atom   18 type  1   force =     0.00000000    0.00000000   -0.00088864
     atom   19 type  1   force =     0.00000000    0.00000000   -0.00061606
     atom   20 type  1   force =     0.00000000    0.00000000   -0.00061606
     atom   21 type  1   force =     0.00000000    0.00000000   -0.00180673
     atom   22 type  1   force =     0.00000000    0.00000000   -0.00181495
     atom   23 type  1   force =     0.00000000    0.00000000    0.00327733
     atom   24 type  1   force =     0.00000000    0.00000000    0.00327733

     Total force =     0.007813     Total SCF correction =     0.000886
     SCF correction compared to forces is large: reduce conv_thr to get better values


     Computing stress (Cartesian axis) and pressure


     negative rho (up, down):  6.671E-06 0.000E+00
          total   stress  (Ry/bohr**3)                   (kbar)     P=   -4.47
  -0.00005567   0.00000000   0.00000000         -8.19      0.00      0.00
   0.00000000  -0.00005567   0.00000000          0.00     -8.19      0.00
   0.00000000   0.00000000   0.00002023          0.00      0.00      2.98


     BFGS Geometry Optimization

     number of scf cycles    =   1
     number of bfgs steps    =   0

     energy   new            =    -299.0576818663 Ry

     new trust radius        =       0.0032817422 bohr
     new conv_thr            =       0.0000010000 Ry


ATOMIC_POSITIONS (crystal)
Al       0.000000000   0.000000000  -0.000043097
Al       0.500000000   0.500000000  -0.000043152
Al       0.500000000   0.000000000   0.050023837
Al       0.000000000   0.500000000   0.050023837
Al       0.000000000   0.000000000   0.100008062
Al       0.500000000   0.500000000   0.100008226
Al       0.500000000   0.000000000   0.150011570
Al       0.000000000   0.500000000   0.150011570
Al       0.000000000   0.000000000   0.199998185
Al       0.500000000   0.500000000   0.199998191
Al       0.500000000   0.000000000   0.249997020
Al       0.000000000   0.500000000   0.249997020
Al       0.000000000   0.000000000   0.300002988
Al       0.500000000   0.500000000   0.300002908
Al       0.500000000   0.000000000   0.350001878
Al       0.000000000   0.500000000   0.350001878
Al       0.000000000   0.000000000   0.399988401
Al       0.500000000   0.500000000   0.399988315
Al       0.500000000   0.000000000   0.449991899
Al       0.000000000   0.500000000   0.449991899
Al       0.000000000   0.000000000   0.499976243
Al       0.500000000   0.500000000   0.499976135
Al       0.500000000   0.000000000   0.550043094
Al       0.000000000   0.500000000   0.550043094



     Writing output data file Al_100_6_4.save/
     NEW-OLD atomic charge density approx. for the potential

     negative rho (up, down):  6.533E-06 0.000E+00

     total cpu time spent up to now is     2055.5 secs

     Self-consistent Calculation

     iteration #  1     ecut=    80.00 Ry     beta= 0.30
     Davidson diagonalization with overlap
     ethr =  1.00E-06,  avg # of iterations =  1.8

     negative rho (up, down):  7.352E-06 0.000E+00

     total cpu time spent up to now is     2142.1 secs

     total energy              =    -299.05773985 Ry
     Harris-Foulkes estimate   =    -299.05774128 Ry
     estimated scf accuracy    <       0.00013685 Ry

     iteration #  2     ecut=    80.00 Ry     beta= 0.30
     Davidson diagonalization with overlap
     ethr =  1.90E-07,  avg # of iterations =  1.2

     negative rho (up, down):  1.844E-05 0.000E+00

     total cpu time spent up to now is     2225.7 secs

     total energy              =    -299.05773737 Ry
     Harris-Foulkes estimate   =    -299.05774313 Ry
     estimated scf accuracy    <       0.00010314 Ry

     iteration #  3     ecut=    80.00 Ry     beta= 0.30
     Davidson diagonalization with overlap
     ethr =  1.43E-07,  avg # of iterations =  1.0

     negative rho (up, down):  2.143E-05 0.000E+00

     total cpu time spent up to now is     2307.1 secs

     total energy              =    -299.05773999 Ry
     Harris-Foulkes estimate   =    -299.05774003 Ry
     estimated scf accuracy    <       0.00000199 Ry

     iteration #  4     ecut=    80.00 Ry     beta= 0.30
     Davidson diagonalization with overlap
     ethr =  2.76E-09,  avg # of iterations =  3.9

     negative rho (up, down):  2.323E-05 0.000E+00

     total cpu time spent up to now is     2413.3 secs

     total energy              =    -299.05774020 Ry
     Harris-Foulkes estimate   =    -299.05774024 Ry
     estimated scf accuracy    <       0.00000116 Ry

     iteration #  5     ecut=    80.00 Ry     beta= 0.30
     Davidson diagonalization with overlap
     ethr =  1.61E-09,  avg # of iterations =  1.0

     negative rho (up, down):  3.985E-05 0.000E+00

     total cpu time spent up to now is     2495.6 secs

     total energy              =    -299.05773983 Ry
     Harris-Foulkes estimate   =    -299.05774021 Ry
     estimated scf accuracy    <       0.00000118 Ry

     iteration #  6     ecut=    80.00 Ry     beta= 0.30
     Davidson diagonalization with overlap
     ethr =  1.61E-09,  avg # of iterations =  2.4

     negative rho (up, down):  6.652E-06 0.000E+00

     total cpu time spent up to now is     2596.6 secs

     End of self-consistent calculation

          k = 0.0000 0.0000 0.0000 ( 53125 PWs)   bands (ev):

    -8.0519  -7.8668  -7.5665  -7.1520  -6.6205  -5.9766  -5.2277  -4.3792
    -3.4289  -2.3858  -1.2541   0.0382   0.2300   0.2300   0.4002   0.4002
     0.6445   0.6764   0.6764   1.0582   1.0582   1.5493   1.5493   1.5921
     1.5921   1.7688   1.7688   2.0537   2.0537   2.1473   2.1473   2.4395
     2.4395   2.5631   2.8462   2.8462   2.9111   2.9111   3.6122   3.6122
     3.6428   3.6428   3.8852

          k = 0.0000 0.0625 0.0000 ( 53127 PWs)   bands (ev):

    -8.0161  -7.8311  -7.5308  -7.1164  -6.5851  -5.9413  -5.1925  -4.3442
    -3.3942  -2.3513  -1.2199  -0.3421  -0.1686   0.0722   0.1127   0.2628
     0.4330   0.5006   0.6776   0.7093   0.9977   1.0910   1.5821   1.5943
     1.6298   1.8029   2.0887   2.1801   2.2248   2.2650   2.3993   2.5168
     2.5964   2.6898   2.8790   2.8810   3.0797   3.2380   3.4127   3.6756
     3.8170   3.9177   4.0467

          k = 0.0000 0.1250 0.0000 ( 53115 PWs)   bands (ev):

    -7.9088  -7.7239  -7.4238  -7.0097  -6.4788  -5.8354  -5.0871  -4.2394
    -3.2900  -2.2478  -1.2464  -1.1174  -1.0704  -0.7850  -0.3915   0.1127
     0.1743   0.3613   0.5315   0.7225   0.7769   0.8077   1.1895   1.4251
     1.6806   1.7282   1.9062   2.1042   2.2786   2.3203   2.5688   2.6960
     2.9774   3.1677   3.2428   3.3116   3.4842   3.6836   3.7740   3.8085
     4.0147   4.0730   4.1850

          k = 0.0000 0.1875 0.0000 ( 53146 PWs)   bands (ev):

    -7.7302  -7.5455  -7.2457  -6.8321  -6.3017  -5.6591  -4.9116  -4.0649
    -3.1165  -2.1452  -2.0756  -1.9675  -1.6794  -1.2820  -0.9467  -0.7727
    -0.1560   0.3441   0.5253   0.5592   0.6956   0.9424   0.9718   1.3536
     1.3607   1.8447   1.8983   2.0352   2.2755   2.3594   2.4427   2.8609
     2.8838   3.1415   3.3335   3.3654   3.9244   3.9379   4.1741   4.4207
     4.5140   4.5798   4.7012

          k = 0.0000 0.2500 0.0000 ( 53102 PWs)   bands (ev):

    -7.4804  -7.2960  -6.9967  -6.5838  -6.0542  -5.4126  -4.6663  -3.8209
    -2.9961  -2.8741  -2.8171  -2.5269  -2.1265  -1.8349  -1.6132  -0.9915
    -0.7081  -0.2692   0.5463   0.5813   0.7551   0.9253   1.1740   1.2016
     1.4476   1.5834   2.0745   2.1187   2.3111   2.3481   2.6725   2.8108
     3.0766   3.0886   3.3712   3.5703   3.6253   4.1675   4.1810   4.3897
     4.7403   4.9602   5.0064

          k = 0.0000 0.3125 0.0000 ( 53088 PWs)   bands (ev):

    -7.1599  -6.9759  -6.6772  -6.2651  -5.7366  -5.0963  -4.3515  -3.7885
    -3.6084  -3.5078  -3.3164  -2.9136  -2.5630  -2.3970  -1.7712  -1.5262
    -1.0438  -0.4022  -0.2210   0.6968   0.8849   1.0505   1.2208   1.4714
     1.4970   1.6873   1.8788   2.3700   2.4321   2.4908   2.9679   2.9945
     2.9975   3.3726   3.3730   3.6665   3.8607   4.1393   4.2044   4.3746
     4.4362   4.4626   4.6508

          k = 0.0000 0.3750 0.0000 ( 53154 PWs)   bands (ev):

    -6.7692  -6.5856  -6.2877  -5.8766  -5.3494  -4.7107  -4.5179  -4.3370
    -4.0434  -3.9678  -3.6385  -3.1262  -3.1192  -2.4900  -2.1839  -1.7584
    -1.1499  -0.9303  -0.0295  -0.0044   1.0066   1.2538   1.4117   1.5819
     1.8344   1.8582   2.0761   2.2400   2.7311   2.7393   3.0854   3.3290
     3.3474   3.4956   3.5143   3.6845   3.6930   3.7349   3.9370   3.9607
     4.0275   4.2535   4.3423

          k = 0.0000 0.4375 0.0000 ( 53154 PWs)   bands (ev):

    -6.3088  -6.1257  -5.8287  -5.4188  -5.1821  -5.0004  -4.8932  -4.7055
    -4.2987  -4.2563  -3.7770  -3.5157  -3.1449  -2.6767  -2.4098  -1.7373
    -1.5774  -0.7069  -0.6460   0.3740   0.4087   1.4724   1.6853   1.8386
     2.0089   2.2623   2.2852   2.6670   2.6706   2.8899   3.0602   3.1580
     3.2955   3.3364   3.3579   3.5058   3.7181   3.7558   3.7777   3.9264
     4.1763   4.2089   4.4541

          k = 0.0000-0.5000 0.0000 ( 53122 PWs)   bands (ev):

    -5.7795  -5.7794  -5.5970  -5.5970  -5.3010  -5.3009  -4.8925  -4.8925
    -4.3687  -4.3687  -3.7341  -3.7340  -2.9960  -2.9960  -2.1601  -2.1600
    -1.2243  -1.2242  -0.1984  -0.1983   0.9107   0.9108   2.1722   2.1723
     2.3313   2.3314   2.5016   2.5016   2.7538   2.7539   2.7779   2.7779
     3.1596   3.1597   3.6506   3.6506   3.7225   3.7225   3.9660   3.9661
     4.2482   4.2483   4.2680

          k = 0.0625 0.0625 0.0000 ( 53111 PWs)   bands (ev):

    -7.9804  -7.7954  -7.4951  -7.0809  -6.5496  -5.9060  -5.1574  -4.3093
    -3.3594  -2.3168  -1.1857  -0.3087  -0.3087  -0.1353  -0.1353   0.1063
     0.1458   0.1458   0.5334   0.5334   0.7107   1.0299   1.0299   1.6364
     1.6364   2.2586   2.2586   2.3380   2.3380   2.4385   2.4385   2.6295
     2.7024   2.7024   3.0814   3.0815   3.1579   3.1579   3.6306   3.6306
     3.9498   4.0860   4.0860

          k = 0.0625 0.1250 0.0000 ( 53106 PWs)   bands (ev):

    -7.8731  -7.6882  -7.3882  -6.9742  -6.4433  -5.8001  -5.0520  -4.2045
    -3.2553  -2.2134  -1.2125  -1.0832  -1.0365  -0.7513  -0.3584  -0.2084
    -0.0357   0.1455   0.2083   0.2453   0.6329   0.7506   0.8100   1.1405
     1.4537   1.7663   2.2651   2.3628   2.4512   2.5264   2.7285   2.8288
     3.0486   3.2399   3.3468   3.4049   3.5093   3.7442   3.7963   4.0452
     4.0453   4.2237   4.2952

          k = 0.0625 0.1875 0.0000 ( 53129 PWs)   bands (ev):

    -7.6945  -7.5098  -7.2101  -6.7966  -6.2663  -5.6238  -4.8766  -4.0300
    -3.0819  -2.1109  -2.0412  -1.9333  -1.6453  -1.2482  -0.9126  -0.7392
    -0.1244  -0.0410   0.1311   0.3779   0.4121   0.5800   0.8160   0.9754
     1.2606   1.4587   1.9169   2.2989   2.5223   2.6174   2.7150   2.8917
     2.9282   3.4164   3.4430   3.4430   3.9224   4.1978   4.3055   4.4268
     4.5283   4.5537   4.7182

          k = 0.0625 0.2500 0.0000 ( 53141 PWs)   bands (ev):

    -7.4448  -7.2604  -6.9612  -6.5483  -6.0189  -5.3774  -4.6313  -3.7861
    -2.9616  -2.8395  -2.7827  -2.4925  -2.0923  -1.8006  -1.5792  -0.9579
    -0.6741  -0.2371   0.1917   0.3646   0.5507   0.6148   0.6754   1.0255
     1.2069   1.5168   1.5476   2.1475   2.4681   2.7651   2.8546   2.9035
     3.1132   3.3075   3.6168   3.6666   3.7198   4.1582   4.3402   4.4700
     4.5306   4.7205   4.7553

          k = 0.0625 0.3125 0.0000 ( 53123 PWs)   bands (ev):

    -7.1244  -6.9404  -6.6418  -6.2297  -5.7014  -5.0612  -4.3166  -3.7537
    -3.5738  -3.4731  -3.2818  -2.8791  -2.5285  -2.3627  -1.7371  -1.4920
    -1.0102  -0.3684  -0.1889   0.4914   0.6412   0.7484   0.9178   0.9424
     1.3546   1.5042   1.7537   1.8429   2.4435   2.7793   3.0344   3.1493
     3.3408   3.3572   3.5802   3.7817   3.8298   3.9472   3.9642   4.1253
     4.1578   4.4758   4.5105

          k = 0.0625 0.3750 0.0000 ( 53123 PWs)   bands (ev):

    -6.7337  -6.5502  -6.2523  -5.8413  -5.3143  -4.6757  -4.4830  -4.3021
    -4.0086  -3.9329  -3.6038  -3.0916  -3.0846  -2.4556  -2.1495  -1.7243
    -1.1159  -0.8967   0.0039   0.0273   0.8516   1.0230   1.0286   1.2850
     1.3504   1.7117   1.8668   2.1471   2.2063   2.8105   2.9648   3.1557
     3.2137   3.4381   3.5066   3.6548   3.6757   3.8126   3.8249   3.9403
     3.9592   4.3220   4.3284

          k = 0.0625 0.4375 0.0000 ( 53148 PWs)   bands (ev):

    -6.2734  -6.0904  -5.7934  -5.3836  -5.1470  -4.9653  -4.8581  -4.6705
    -4.2638  -4.2215  -3.7422  -3.4810  -3.1103  -2.6422  -2.3754  -1.7031
    -1.5433  -0.6732  -0.6126   0.4048   0.4412   1.2865   1.3861   1.5995
     1.7067   1.7579   2.1413   2.2923   2.3693   2.5361   2.6307   2.7795
     2.8132   3.1996   3.2232   3.3604   3.6941   3.8797   3.9540   4.0779
     4.1481   4.2972   4.3655

          k = 0.0625-0.5000 0.0000 ( 53190 PWs)   bands (ev):

    -5.7442  -5.7442  -5.5618  -5.5618  -5.2659  -5.2658  -4.8575  -4.8575
    -4.3338  -4.3338  -3.6994  -3.6993  -2.9615  -2.9614  -2.1257  -2.1257
    -1.1903  -1.1903  -0.1653  -0.1652   0.9396   0.9397   1.7629   1.7630
     1.9767   1.9768   2.2432   2.2433   2.2578   2.2579   2.6358   2.6358
     2.7888   2.7888   3.1346   3.1347   3.7390   3.7390   4.2216   4.2216
     4.4428   4.4429   4.5412

          k = 0.1250 0.1250 0.0000 ( 53105 PWs)   bands (ev):

    -7.7659  -7.5812  -7.2813  -6.8676  -6.3371  -5.6943  -4.9467  -4.0997
    -3.1512  -2.1101  -1.1109  -1.1109  -0.9808  -0.9352  -0.9352  -0.6505
    -0.6505  -0.2583  -0.2583   0.2432   0.2432   0.3100   0.8625   0.8625
     0.9092   1.5930   1.5930   2.3869   2.3869   2.8250   3.2665   3.2665
     3.4404   3.4404   3.6255   3.6255   3.8563   3.8563   4.1316   4.3204
     4.3204   4.3769   4.3770

          k = 0.1250 0.1875 0.0000 ( 53090 PWs)   bands (ev):

    -7.5874  -7.4029  -7.1034  -6.6902  -6.1602  -5.5182  -4.7714  -3.9254
    -2.9780  -2.0083  -1.9381  -1.8308  -1.5432  -1.1470  -0.9414  -0.8104
    -0.7673  -0.6384  -0.4827  -0.0908  -0.0292   0.4269   0.4792   0.6848
     1.0655   1.0745   1.5273   1.7554   2.4167   2.5700   2.9795   3.3531
     3.4908   3.6202   3.7574   4.1379   4.2096   4.3892   4.4382   4.4892
     4.6051   4.6634   4.6930

          k = 0.1250 0.2500 0.0000 ( 53137 PWs)   bands (ev):

    -7.3379  -7.1537  -6.8546  -6.4421  -5.9130  -5.2719  -4.5263  -3.6817
    -2.8581  -2.7358  -2.6794  -2.3895  -1.9897  -1.6977  -1.4774  -0.8586
    -0.7045  -0.5723  -0.5307  -0.2466  -0.1485   0.1641   0.5795   0.7150
     0.7807   1.2799   1.3057   1.6160   1.9859   2.6112   2.7913   3.1404
     3.6314   3.6940   3.6998   3.7092   3.8233   4.0175   4.1294   4.3441
     4.4044   4.6188   4.6853

          k = 0.1250 0.3125 0.0000 ( 53145 PWs)   bands (ev):

    -7.0177  -6.8339  -6.5354  -6.1237  -5.5957  -4.9559  -4.2119  -3.6496
    -3.4698  -3.3689  -3.1780  -2.7757  -2.4251  -2.2598  -1.6351  -1.3894
    -0.9104  -0.4018  -0.2673  -0.2271  -0.1104   0.0817   0.4353   0.8731
     0.9741   1.0154   1.5785   1.6023   1.8569   2.2915   2.7762   2.9184
     2.9822   3.1187   3.2687   3.6083   3.6587   3.9134   4.0516   4.1597
     4.3573   4.4194   4.7056

          k = 0.1250 0.3750 0.0000 ( 53147 PWs)   bands (ev):

    -6.6274  -6.4439  -6.1463  -5.7355  -5.2089  -4.5707  -4.3783  -4.1975
    -3.9043  -3.8285  -3.4997  -2.9877  -2.9809  -2.3525  -2.0464  -1.6222
    -1.0139  -0.7969  -0.0316   0.0795   0.1036   0.1870   0.4217   0.8465
     1.1727   1.3382   1.3705   1.9414   1.9623   2.1301   2.2624   2.2987
     2.5781   2.6511   2.9675   3.4537   3.4645   3.5001   3.9338   4.0715
     4.0755   4.3758   4.5374

          k = 0.1250 0.4375 0.0000 ( 53119 PWs)   bands (ev):

    -6.1674  -5.9845  -5.6877  -5.2782  -5.0418  -4.8602  -4.7531  -4.5656
    -4.1592  -4.1168  -3.6380  -3.3769  -3.0066  -2.5387  -2.2724  -1.6006
    -1.4413  -0.5723  -0.5134   0.3905   0.4973   0.5361   0.5761   0.9085
     1.2726   1.4328   1.6359   1.6722   1.7707   1.8770   1.9499   2.3297
     2.3795   2.4001   2.8383   2.8699   3.1190   3.4309   3.4471   3.9164
     4.1379   4.3505   4.7715

          k = 0.1250-0.5000 0.0000 ( 53126 PWs)   bands (ev):

    -5.6386  -5.6386  -5.4563  -5.4563  -5.1605  -5.1605  -4.7525  -4.7524
    -4.2292  -4.2291  -3.5951  -3.5951  -2.8578  -2.8578  -2.0229  -2.0228
    -1.0888  -1.0887  -0.0675  -0.0675   0.9022   0.9023   0.9470   0.9471
     1.1994   1.1995   1.3859   1.3860   1.7716   1.7717   2.2531   2.2532
     2.3600   2.3601   2.8237   2.8238   2.9426   2.9426   3.5914   3.5915
     4.3971   4.3971   4.7417

          k = 0.1875 0.1875 0.0000 ( 53109 PWs)   bands (ev):

    -7.4092  -7.2248  -6.9257  -6.5129  -5.9836  -5.3422  -4.5963  -3.7513
    -2.8049  -1.8374  -1.8374  -1.7664  -1.6604  -1.6604  -1.3734  -1.3734
    -0.9781  -0.9781  -0.6404  -0.4729  -0.4728   0.1533   0.1533   0.6472
     0.8906   0.8906   1.2395   1.6925   1.6925   2.6003   2.6003   3.0734
     3.5938   3.5938   3.6573   3.6582   3.9698   4.3569   4.5639   4.6139
     4.6141   4.7949   4.8618

          k = 0.1875 0.2500 0.0000 ( 53097 PWs)   bands (ev):

    -7.1599  -6.9759  -6.6772  -6.2651  -5.7366  -5.0963  -4.3515  -3.5079
    -2.6859  -2.5631  -2.5074  -2.2180  -1.8194  -1.5982  -1.5264  -1.4232
    -1.3074  -1.1362  -0.7415  -0.6946  -0.4031  -0.2189   0.0264   0.4224
     0.8726   0.8801   1.1188   1.4700   1.7705   1.9413   2.6632   2.7365
     2.8742   2.8889   3.1621   3.4902   3.5533   3.7518   3.9538   4.0556
     4.6351   4.7871   4.7957

          k = 0.1875 0.3125 0.0000 ( 53134 PWs)   bands (ev):

    -6.8402  -6.6565  -6.3584  -5.9471  -5.4197  -4.7807  -4.0375  -3.4762
    -3.2966  -3.1956  -3.0053  -2.6036  -2.2529  -2.0887  -1.4668  -1.2914
    -1.2189  -1.1166  -0.8304  -0.7522  -0.4168  -0.0996  -0.0064   0.1898
     0.7059   1.0227   1.1682   1.4161   1.7639   1.9576   2.0302   2.1272
     2.2267   2.4078   2.7984   3.1208   3.1375   3.2965   3.7529   3.9053
     4.1338   4.3532   4.6165

          k = 0.1875 0.3750 0.0000 ( 53123 PWs)   bands (ev):

    -6.4503  -6.2670  -5.9697  -5.5594  -5.0334  -4.3959  -4.2040  -4.0234
    -3.7305  -3.6546  -3.3265  -2.8149  -2.8085  -2.1812  -1.8749  -1.4534
    -0.9189  -0.8446  -0.7430  -0.6475  -0.4339  -0.0771   0.2662   0.3397
     0.4654   1.0736   1.1860   1.3286   1.4342   1.6178   1.7127   1.7910
     2.0877   2.1424   2.4042   2.6047   2.6239   3.2156   3.4482   3.7607
     3.9064   4.1236   4.1841

          k = 0.1875 0.4375 0.0000 ( 53144 PWs)   bands (ev):

    -5.9908  -5.8082  -5.5117  -5.1027  -4.8667  -4.6853  -4.5781  -4.3910
    -3.9851  -3.9426  -3.4645  -3.2036  -2.8340  -2.3666  -2.1011  -1.4302
    -1.2727  -0.4787  -0.4063  -0.3845  -0.2665  -0.0230   0.4042   0.5932
     0.6195   0.7061   0.8854   0.8993   1.0809   1.4681   1.5041   1.8042
     1.9427   2.0405   2.2177   2.5041   2.6340   3.0227   3.0670   3.2954
     3.6237   3.9620   4.1039

          k = 0.1875-0.5000 0.0000 ( 53118 PWs)   bands (ev):

    -5.4627  -5.4627  -5.2806  -5.2806  -4.9852  -4.9851  -4.5776  -4.5775
    -4.0549  -4.0548  -3.4217  -3.4216  -2.6853  -2.6853  -1.8518  -1.8518
    -0.9210  -0.9209   0.0080   0.0080   0.0997   0.0997   0.1991   0.1991
     0.5328   0.5329   0.9002   0.9002   1.2380   1.2380   1.4005   1.4005
     2.0120   2.0121   2.4804   2.4805   2.7564   2.7565   3.0369   3.0370
     3.5572   3.5573   4.4394

          k = 0.2500 0.2500 0.0000 ( 53157 PWs)   bands (ev):

    -6.9112  -6.7274  -6.4292  -6.0177  -5.4901  -4.8508  -4.1072  -3.2649
    -2.4451  -2.4451  -2.3218  -2.2672  -2.2672  -1.9786  -1.9786  -1.5810
    -1.5810  -1.2873  -1.0727  -1.0727  -0.4423  -0.4423  -0.1674   0.2962
     0.2962   1.1006   1.1036   1.1036   1.6977   1.8977   2.0179   2.0179
     2.0676   2.3484   2.7394   3.0228   3.0228   3.2379   3.6900   3.8472
     4.1099   4.1099   4.5590

          k = 0.2500 0.3125 0.0000 ( 53162 PWs)   bands (ev):

    -6.5919  -6.4085  -6.1109  -5.7003  -5.1737  -4.5357  -3.7937  -3.2339
    -3.0546  -2.9532  -2.7640  -2.3635  -2.1360  -2.0123  -1.9602  -1.8490
    -1.6716  -1.2746  -1.2330  -0.9810  -0.7495  -0.5069  -0.1091   0.1310
     0.3386   0.5936   1.0593   1.2408   1.3103   1.4213   1.4861   1.5891
     1.9613   2.0136   2.2129   2.3746   2.4826   3.0944   3.2381   3.4504
     3.7850   3.9994   4.3246

          k = 0.2500 0.3750 0.0000 ( 53145 PWs)   bands (ev):

    -6.2027  -6.0197  -5.7228  -5.3133  -4.7880  -4.1516  -3.9603  -3.7800
    -3.4876  -3.4115  -3.0844  -2.5734  -2.5677  -1.9433  -1.7592  -1.6356
    -1.5835  -1.2959  -1.2251  -0.8811  -0.6100  -0.4677  -0.2826   0.2453
     0.4017   0.4213   0.5544   0.6909   0.8906   0.9588   1.2787   1.5671
     1.7493   1.7730   1.8457   2.3085   2.4446   2.6651   2.6877   3.1100
     3.6878   3.9200   3.9218

          k = 0.2500 0.4375 0.0000 ( 53163 PWs)   bands (ev):

    -5.7440  -5.5616  -5.2656  -4.8573  -4.6218  -4.4407  -4.3336  -4.1469
    -3.7417  -3.6992  -3.2221  -2.9615  -2.5930  -2.1263  -1.8628  -1.3168
    -1.1934  -1.1402  -1.0526  -0.8310  -0.4705  -0.2537  -0.1672  -0.0664
    -0.0598   0.0716   0.2732   0.6429   0.6826   0.9270   0.9699   1.1446
     1.4030   1.7578   2.0075   2.2153   2.2390   2.5046   2.7731   3.0613
     3.3076   3.3802   3.7912

          k = 0.2500-0.5000 0.0000 ( 53124 PWs)   bands (ev):

    -5.2168  -5.2167  -5.0350  -5.0349  -4.7400  -4.7400  -4.3331  -4.3331
    -3.8113  -3.8113  -3.1792  -3.1792  -2.4445  -2.4444  -1.6139  -1.6139
    -0.8071  -0.8071  -0.7195  -0.7195  -0.5974  -0.5973  -0.3495  -0.3495
     0.0774   0.0774   0.3688   0.3689   0.5750   0.5750   1.1809   1.1810
     1.4718   1.4719   1.8971   1.8971   2.7040   2.7040   2.7396   2.7397
     3.2966   3.2967   3.6480

          k = 0.3125 0.3125 0.0000 ( 53201 PWs)   bands (ev):

    -6.2733  -6.0903  -5.7933  -5.3835  -4.8580  -4.2214  -3.4809  -2.9230
    -2.9230  -2.7443  -2.7443  -2.6424  -2.4545  -2.4545  -2.0552  -2.0552
    -1.7041  -1.5446  -1.5446  -0.9116  -0.9115  -0.6780  -0.1735  -0.1735
     0.3372   0.3550   0.6254   0.6382   0.6382   0.8264   1.2148   1.5566
     1.5566   1.6841   1.7804   2.2430   2.3809   2.5663   2.5664   3.0473
     3.6602   3.6602   3.8578

          k = 0.3125 0.3750 0.0000 ( 53199 PWs)   bands (ev):

    -5.8849  -5.7024  -5.4061  -4.9974  -4.4732  -3.8382  -3.6476  -3.4678
    -3.1762  -3.0998  -2.7744  -2.5438  -2.3673  -2.2638  -2.2581  -2.0776
    -1.6791  -1.6396  -1.3300  -1.1526  -0.9098  -0.5139  -0.3857  -0.3011
    -0.1908  -0.0661   0.1415   0.1941   0.5124   0.8353   0.8392   1.0148
     1.0254   1.6288   1.8149   1.9822   2.0819   2.3767   2.6410   2.8447
     3.0619   3.1808   3.9364

          k = 0.3125 0.4375 0.0000 ( 53184 PWs)   bands (ev):

    -5.4273  -5.2453  -4.9499  -4.5424  -4.3076  -4.1269  -4.0199  -3.8337
    -3.4295  -3.3869  -2.9114  -2.6511  -2.2854  -2.0971  -1.9208  -1.8192
    -1.6322  -1.5644  -1.2168  -1.0064  -0.9214  -0.7989  -0.7978  -0.6248
    -0.5476  -0.1214  -0.0884   0.1653   0.2174   0.3778   0.6275   0.9843
     1.2333   1.2712   1.4441   1.7020   2.3350   2.3615   2.5101   2.5410
     3.0996   3.3640   3.4565

          k = 0.3125-0.5000 0.0000 ( 53132 PWs)   bands (ev):

    -4.9012  -4.9012  -4.7198  -4.7198  -4.4255  -4.4254  -4.0195  -4.0194
    -3.4989  -3.4988  -2.8685  -2.8684  -2.1367  -2.1366  -1.5851  -1.5851
    -1.4080  -1.4079  -1.3237  -1.3236  -1.0990  -1.0990  -0.7355  -0.7354
    -0.3392  -0.3392  -0.1947  -0.1947   0.4182   0.4182   0.6575   0.6576
     1.1405   1.1405   1.7408   1.7408   1.9786   1.9786   2.7998   2.7999
     3.1203   3.1204   3.5281

          k = 0.3750 0.3750 0.0000 ( 53236 PWs)   bands (ev):

    -5.4976  -5.3155  -5.0199  -4.6123  -4.0895  -3.4562  -3.2665  -3.2664
    -3.0873  -3.0873  -2.7967  -2.7967  -2.7200  -2.3962  -2.3962  -1.8877
    -1.8839  -1.8839  -1.2492  -1.2492  -1.0731  -0.9888  -0.8649  -0.6139
    -0.5120  -0.5120  -0.1881   0.0973   0.3028   0.3029   0.3117   0.9184
     1.2042   1.2240   1.2240   1.6365   2.2367   2.2367   2.4450   2.4745
     3.0338   3.3339   3.3340

          k = 0.3750 0.4375 0.0000 ( 53180 PWs)   bands (ev):

    -5.0412  -4.8596  -4.5650  -4.1586  -3.9245  -3.7443  -3.6375  -3.4521
    -3.0495  -3.0064  -2.8172  -2.6403  -2.5320  -2.3500  -2.2739  -1.9503
    -1.9118  -1.7199  -1.5425  -1.4595  -1.4231  -1.2337  -1.1796  -0.8685
    -0.7860  -0.4761  -0.3375  -0.3287  -0.0743   0.2852   0.5224   0.5698
     0.7594   1.0084   1.5477   1.6069   1.7184   1.8475   2.5803   2.6683
     2.8002   2.9894   3.3963

          k = 0.3750-0.5000 0.0000 ( 53234 PWs)   bands (ev):

    -4.5165  -4.5165  -4.3356  -4.3355  -4.0420  -4.0420  -3.6372  -3.6371
    -3.1183  -3.1183  -2.4912  -2.4911  -2.3009  -2.3009  -2.1243  -2.1243
    -1.8351  -1.8351  -1.7686  -1.7686  -1.4196  -1.4195  -0.9981  -0.9981
    -0.8318  -0.8317  -0.2900  -0.2900   0.0144   0.0144   0.4273   0.4273
     1.0321   1.0321   1.2453   1.2454   2.1357   2.1358   2.1642   2.1642
     3.1682   3.1682   3.4002

          k = 0.4375 0.4375 0.0000 ( 53278 PWs)   bands (ev):

    -4.5862  -4.4052  -4.1115  -3.7065  -3.4733  -3.4733  -3.2938  -3.2938
    -3.1873  -3.0028  -3.0027  -2.6016  -2.6016  -2.5599  -2.3690  -2.1923
    -2.0882  -2.0882  -1.9029  -1.8368  -1.4873  -1.4526  -1.4526  -1.0646
    -0.9010  -0.7160  -0.7160  -0.3574  -0.0534   0.1007   0.1007   0.3604
     0.9649   1.0234   1.0234   1.1789   2.0378   2.0378   2.0691   2.0982
     3.1027   3.1369   3.1369

          k = 0.4375-0.5000 0.0000 ( 53318 PWs)   bands (ev):

    -4.0633  -4.0632  -3.8829  -3.8829  -3.5904  -3.5904  -3.1874  -3.1873
    -2.9544  -2.9543  -2.7773  -2.7773  -2.6693  -2.6693  -2.4866  -2.4865
    -2.0864  -2.0864  -2.0483  -2.0482  -1.5589  -1.5588  -1.3148  -1.3148
    -0.9226  -0.9225  -0.4736  -0.4736  -0.2091  -0.2090   0.4347   0.4347
     0.6258   0.6259   1.4137   1.4137   1.5859   1.5859   2.4475   2.4476
     2.6686   2.6687   3.5434

          k =-0.5000-0.5000 0.0000 ( 53320 PWs)   bands (ev):

    -3.5424  -3.5423  -3.5423  -3.5423  -3.3628  -3.3628  -3.3628  -3.3627
    -3.0716  -3.0715  -3.0715  -3.0715  -2.6702  -2.6701  -2.6701  -2.6701
    -2.1565  -2.1564  -2.1564  -2.1564  -1.5206  -1.5205  -1.5205  -1.5205
    -0.7843  -0.7842  -0.7842  -0.7842   0.0331   0.0332   0.0332   0.0332
     0.9563   0.9564   0.9564   0.9565   1.9713   1.9714   1.9714   1.9714
     3.0710   3.0710   3.0710

     the Fermi energy is     3.1410 ev

!    total energy              =    -299.05773980 Ry
     Harris-Foulkes estimate   =    -299.05774006 Ry
     estimated scf accuracy    <       0.00000047 Ry

     The total energy is the sum of the following terms:

     one-electron contribution =   -2211.46221839 Ry
     hartree contribution      =    1128.82266917 Ry
     xc contribution           =    -240.42226479 Ry
     ewald contribution        =    1024.00366173 Ry
     smearing contrib. (-TS)   =       0.00041247 Ry

     convergence has been achieved in   6 iterations

     negative rho (up, down):  6.652E-06 0.000E+00

     Forces acting on atoms (cartesian axes, Ry/au):

     atom    1 type  1   force =     0.00000000    0.00000000   -0.00298672
     atom    2 type  1   force =     0.00000000    0.00000000   -0.00299099
     atom    3 type  1   force =     0.00000000    0.00000000    0.00146520
     atom    4 type  1   force =     0.00000000    0.00000000    0.00146520
     atom    5 type  1   force =     0.00000000    0.00000000    0.00068372
     atom    6 type  1   force =     0.00000000    0.00000000    0.00069422
     atom    7 type  1   force =     0.00000000    0.00000000    0.00080144
     atom    8 type  1   force =     0.00000000    0.00000000    0.00080144
     atom    9 type  1   force =     0.00000000    0.00000000   -0.00008305
     atom   10 type  1   force =     0.00000000    0.00000000   -0.00007993
     atom   11 type  1   force =     0.00000000    0.00000000   -0.00019004
     atom   12 type  1   force =     0.00000000    0.00000000   -0.00019004
     atom   13 type  1   force =     0.00000000    0.00000000    0.00018986
     atom   14 type  1   force =     0.00000000    0.00000000    0.00018594
     atom   15 type  1   force =     0.00000000    0.00000000    0.00008559
     atom   16 type  1   force =     0.00000000    0.00000000    0.00008559
     atom   17 type  1   force =     0.00000000    0.00000000   -0.00080262
     atom   18 type  1   force =     0.00000000    0.00000000   -0.00080914
     atom   19 type  1   force =     0.00000000    0.00000000   -0.00068632
     atom   20 type  1   force =     0.00000000    0.00000000   -0.00068632
     atom   21 type  1   force =     0.00000000    0.00000000   -0.00145939
     atom   22 type  1   force =     0.00000000    0.00000000   -0.00146729
     atom   23 type  1   force =     0.00000000    0.00000000    0.00298682
     atom   24 type  1   force =     0.00000000    0.00000000    0.00298682

     Total force =     0.006995     Total SCF correction =     0.001005
     SCF correction compared to forces is large: reduce conv_thr to get better values


     Computing stress (Cartesian axis) and pressure


     negative rho (up, down):  6.652E-06 0.000E+00
          total   stress  (Ry/bohr**3)                   (kbar)     P=   -4.53
  -0.00005594   0.00000000   0.00000000         -8.23      0.00      0.00
   0.00000000  -0.00005594   0.00000000          0.00     -8.23      0.00
   0.00000000   0.00000000   0.00001957          0.00      0.00      2.88


     number of scf cycles    =   2
     number of bfgs steps    =   1

     energy   old            =    -299.0576818663 Ry
     energy   new            =    -299.0577398027 Ry

     CASE: energy  _new < energy  _old


     WARNING: bfgs curvature condition failed, Theta= 0.895
     new trust radius        =       0.0036099165 bohr
     new conv_thr            =       0.0000000100 Ry


ATOMIC_POSITIONS (crystal)
Al       0.000000000   0.000000000  -0.000090498
Al       0.500000000   0.500000000  -0.000090620
Al       0.500000000   0.000000000   0.050047623
Al       0.000000000   0.500000000   0.050047623
Al       0.000000000   0.000000000   0.100018557
Al       0.500000000   0.500000000   0.100018890
Al       0.500000000   0.000000000   0.150024290
Al       0.000000000   0.500000000   0.150024290
Al       0.000000000   0.000000000   0.199996745
Al       0.500000000   0.500000000   0.199996793
Al       0.500000000   0.000000000   0.249993957
Al       0.000000000   0.500000000   0.249993957
Al       0.000000000   0.000000000   0.300006050
Al       0.500000000   0.500000000   0.300005904
Al       0.500000000   0.000000000   0.350003364
Al       0.000000000   0.500000000   0.350003364
Al       0.000000000   0.000000000   0.399975659
Al       0.500000000   0.500000000   0.399975472
Al       0.500000000   0.000000000   0.449981363
Al       0.000000000   0.500000000   0.449981363
Al       0.000000000   0.000000000   0.499952548
Al       0.500000000   0.500000000   0.499952316
Al       0.500000000   0.000000000   0.550090496
Al       0.000000000   0.500000000   0.550090496



     Writing output data file Al_100_6_4.save/
     NEW-OLD atomic charge density approx. for the potential

     negative rho (up, down):  6.505E-06 0.000E+00

     total cpu time spent up to now is     2721.5 secs

     Self-consistent Calculation

     iteration #  1     ecut=    80.00 Ry     beta= 0.30
     Davidson diagonalization with overlap
     ethr =  1.00E-06,  avg # of iterations =  2.0

     negative rho (up, down):  7.812E-06 0.000E+00

     total cpu time spent up to now is     2814.3 secs

     total energy              =    -299.05779743 Ry
     Harris-Foulkes estimate   =    -299.05779959 Ry
     estimated scf accuracy    <       0.00017878 Ry

     iteration #  2     ecut=    80.00 Ry     beta= 0.30
     Davidson diagonalization with overlap
     ethr =  2.48E-07,  avg # of iterations =  1.0

     negative rho (up, down):  2.603E-05 0.000E+00

     total cpu time spent up to now is     2898.2 secs

     total energy              =    -299.05779151 Ry
     Harris-Foulkes estimate   =    -299.05780040 Ry
     estimated scf accuracy    <       0.00012692 Ry

     iteration #  3     ecut=    80.00 Ry     beta= 0.30
     Davidson diagonalization with overlap
     ethr =  1.76E-07,  avg # of iterations =  1.0

     negative rho (up, down):  2.719E-05 0.000E+00

     total cpu time spent up to now is     2980.2 secs

     total energy              =    -299.05779585 Ry
     Harris-Foulkes estimate   =    -299.05779595 Ry
     estimated scf accuracy    <       0.00000335 Ry

     iteration #  4     ecut=    80.00 Ry     beta= 0.30
     Davidson diagonalization with overlap
     ethr =  4.65E-09,  avg # of iterations =  3.8

     negative rho (up, down):  2.931E-05 0.000E+00

     total cpu time spent up to now is     3086.3 secs

     total energy              =    -299.05779626 Ry
     Harris-Foulkes estimate   =    -299.05779629 Ry
     estimated scf accuracy    <       0.00000075 Ry

     iteration #  5     ecut=    80.00 Ry     beta= 0.30
     Davidson diagonalization with overlap
     ethr =  1.04E-09,  avg # of iterations =  1.3

     negative rho (up, down):  4.814E-05 0.000E+00

     total cpu time spent up to now is     3171.1 secs

     total energy              =    -299.05779601 Ry
     Harris-Foulkes estimate   =    -299.05779627 Ry
     estimated scf accuracy    <       0.00000077 Ry

     iteration #  6     ecut=    80.00 Ry     beta= 0.30
     Davidson diagonalization with overlap
     ethr =  1.04E-09,  avg # of iterations =  2.5

     negative rho (up, down):  4.759E-05 0.000E+00

     total cpu time spent up to now is     3276.8 secs

     total energy              =    -299.05779616 Ry
     Harris-Foulkes estimate   =    -299.05779616 Ry
     estimated scf accuracy    <       0.00000040 Ry

     iteration #  7     ecut=    80.00 Ry     beta= 0.30
     Davidson diagonalization with overlap
     ethr =  5.58E-10,  avg # of iterations =  1.0

     negative rho (up, down):  3.108E-05 0.000E+00

     total cpu time spent up to now is     3359.2 secs

     total energy              =    -299.05779612 Ry
     Harris-Foulkes estimate   =    -299.05779616 Ry
     estimated scf accuracy    <       0.00000037 Ry

     iteration #  8     ecut=    80.00 Ry     beta= 0.30
     Davidson diagonalization with overlap
     ethr =  5.15E-10,  avg # of iterations =  2.8

     negative rho (up, down):  2.346E-05 0.000E+00

     total cpu time spent up to now is     3465.5 secs

     total energy              =    -299.05779622 Ry
     Harris-Foulkes estimate   =    -299.05779620 Ry
     estimated scf accuracy    <       0.00000014 Ry

     iteration #  9     ecut=    80.00 Ry     beta= 0.30
     Davidson diagonalization with overlap
     ethr =  1.89E-10,  avg # of iterations =  1.3

     negative rho (up, down):  1.788E-05 0.000E+00

     total cpu time spent up to now is     3550.5 secs

     total energy              =    -299.05779625 Ry
     Harris-Foulkes estimate   =    -299.05779623 Ry
     estimated scf accuracy    <       0.00000005 Ry

     iteration # 10     ecut=    80.00 Ry     beta= 0.30
     Davidson diagonalization with overlap
     ethr =  7.04E-11,  avg # of iterations =  1.1

     negative rho (up, down):  9.031E-06 0.000E+00

     total cpu time spent up to now is     3633.4 secs

     total energy              =    -299.05779624 Ry
     Harris-Foulkes estimate   =    -299.05779625 Ry
     estimated scf accuracy    <       0.00000007 Ry

     iteration # 11     ecut=    80.00 Ry     beta= 0.30
     Davidson diagonalization with overlap
     c_bands:  1 eigenvalues not converged
     ethr =  7.04E-11,  avg # of iterations =  2.6

     negative rho (up, down):  6.630E-06 0.000E+00

     total cpu time spent up to now is     3729.6 secs

     End of self-consistent calculation

          k = 0.0000 0.0000 0.0000 ( 53125 PWs)   bands (ev):

    -8.0527  -7.8673  -7.5656  -7.1510  -6.6188  -5.9752  -5.2277  -4.3803
    -3.4303  -2.3876  -1.2558   0.0357   0.2292   0.2292   0.3998   0.3998
     0.6422   0.6774   0.6774   1.0593   1.0593   1.5513   1.5513   1.5912
     1.5914   1.7683   1.7684   2.0545   2.0546   2.1491   2.1491   2.4402
     2.4403   2.5618   2.8464   2.8464   2.9118   2.9119   3.6148   3.6149
     3.6416   3.6416   3.8829

          k = 0.0000 0.0625 0.0000 ( 53127 PWs)   bands (ev):

    -8.0169  -7.8315  -7.5299  -7.1154  -6.5834  -5.9399  -5.1925  -4.3454
    -3.3956  -2.3531  -1.2216  -0.3430  -0.1691   0.0698   0.1136   0.2620
     0.4326   0.5017   0.6753   0.7102   0.9996   1.0921   1.5841   1.5958
     1.6292   1.8025   2.0895   2.1819   2.2240   2.2649   2.3988   2.5184
     2.5951   2.6901   2.8792   2.8824   3.0799   3.2373   3.4132   3.6744
     3.8197   3.9154   4.0452

          k = 0.0000 0.1250 0.0000 ( 53115 PWs)   bands (ev):

    -7.9097  -7.7244  -7.4230  -7.0087  -6.4771  -5.8340  -5.0871  -4.2405
    -3.2914  -2.2496  -1.2472  -1.1190  -1.0708  -0.7841  -0.3905   0.1146
     0.1718   0.3604   0.5310   0.7241   0.7746   0.8087   1.1906   1.4252
     1.6826   1.7273   1.9057   2.1038   2.2804   2.3208   2.5699   2.6947
     2.9776   3.1690   3.2413   3.3108   3.4836   3.6845   3.7728   3.8092
     4.0124   4.0730   4.1831

          k = 0.0000 0.1875 0.0000 ( 53146 PWs)   bands (ev):

    -7.7310  -7.5459  -7.2449  -6.8311  -6.3000  -5.6577  -4.9117  -4.0660
    -3.1180  -2.1460  -2.0774  -1.9679  -1.6785  -1.2810  -0.9483  -0.7709
    -0.1545   0.3417   0.5245   0.5593   0.6951   0.9401   0.9728   1.3547
     1.3596   1.8467   1.8974   2.0342   2.2753   2.3603   2.4445   2.8595
     2.8841   3.1417   3.3348   3.3637   3.9254   3.9367   4.1718   4.4192
     4.5131   4.5796   4.7006

          k = 0.0000 0.2500 0.0000 ( 53102 PWs)   bands (ev):

    -7.4813  -7.2965  -6.9959  -6.5828  -6.0525  -5.4112  -4.6663  -3.8220
    -2.9969  -2.8755  -2.8176  -2.5260  -2.1255  -1.8367  -1.6115  -0.9900
    -0.7097  -0.2692   0.5452   0.5788   0.7542   0.9249   1.1717   1.2025
     1.4462   1.5845   2.0765   2.1177   2.3108   2.3476   2.6743   2.8105
     3.0773   3.0873   3.3714   3.5717   3.6237   4.1663   4.1822   4.3875
     4.7389   4.9593   5.0055

          k = 0.0000 0.3125 0.0000 ( 53088 PWs)   bands (ev):

    -7.1608  -6.9763  -6.6763  -6.2641  -5.7349  -5.0949  -4.3515  -3.7893
    -3.6089  -3.5090  -3.3155  -2.9126  -2.5645  -2.3953  -1.7698  -1.5280
    -1.0438  -0.4038  -0.2221   0.6955   0.8824   1.0497   1.2203   1.4691
     1.4980   1.6856   1.8800   2.3719   2.4313   2.4901   2.9697   2.9952
     2.9962   3.3717   3.3735   3.6667   3.8618   4.1373   4.2036   4.3742
     4.4365   4.4614   4.6518

          k = 0.0000 0.3750 0.0000 ( 53154 PWs)   bands (ev):

    -6.7700  -6.5861  -6.2868  -5.8756  -5.3477  -4.7092  -4.5188  -4.3374
    -4.0425  -3.9678  -3.6375  -3.1273  -3.1174  -2.4885  -2.1853  -1.7584
    -1.1517  -0.9314  -0.0312  -0.0058   1.0048   1.2513   1.4108   1.5815
     1.8321   1.8592   2.0746   2.2412   2.7331   2.7384   3.0849   3.3308
     3.3482   3.4933   3.5134   3.6841   3.6916   3.7357   3.9350   3.9617
     4.0277   4.2551   4.3435

          k = 0.0000 0.4375 0.0000 ( 53154 PWs)   bands (ev):

    -6.3096  -6.1262  -5.8278  -5.4178  -5.1829  -5.0008  -4.8915  -4.7046
    -4.2977  -4.2549  -3.7752  -3.5157  -3.1434  -2.6778  -2.4098  -1.7387
    -1.5785  -0.7087  -0.6474   0.3722   0.4071   1.4708   1.6829   1.8378
     2.0084   2.2601   2.2862   2.6681   2.6685   2.8891   3.0597   3.1600
     3.2936   3.3374   3.3566   3.5051   3.7193   3.7576   3.7786   3.9251
     4.1773   4.2109   4.4542

          k = 0.0000-0.5000 0.0000 ( 53122 PWs)   bands (ev):

[...]
    -3.1539  -2.1163  -1.1100  -1.1099  -0.9858  -0.9306  -0.9305  -0.6352
    -0.6352  -0.2423  -0.2422   0.2624   0.2625   0.2988   0.8818   0.8818
     0.8995   1.6014   1.6015   2.3875   2.3876   2.8224   3.2641   3.2641
     3.4411   3.4412   3.6322   3.6323   3.8696   3.8696   4.1208   4.3335
     4.3335   4.3730   4.3730

          k = 0.1250 0.1875 0.0000 ( 53090 PWs)   bands (ev):

    -7.5864  -7.3982  -7.0884  -6.6744  -6.1410  -5.5013  -4.7633  -3.9250
    -2.9806  -2.0073  -1.9443  -1.8262  -1.5280  -1.1308  -0.9405  -0.8153
    -0.7623  -0.6191  -0.4676  -0.0753  -0.0124   0.4482   0.4679   0.6965
     1.0648   1.0814   1.5277   1.7644   2.4133   2.5719   2.9769   3.3490
     3.4886   3.6214   3.7623   4.1510   4.2031   4.3846   4.4391   4.5047
     4.6017   4.6634   4.6922

          k = 0.1250 0.2500 0.0000 ( 53137 PWs)   bands (ev):

    -7.3369  -7.1490  -6.8397  -6.4263  -5.8937  -5.2550  -4.5182  -3.6813
    -2.8572  -2.7384  -2.6747  -2.3743  -1.9737  -1.7039  -1.4578  -0.8411
    -0.7037  -0.5772  -0.5262  -0.2318  -0.1405   0.1816   0.5942   0.7038
     0.7874   1.2960   1.2974   1.6136   1.9945   2.6059   2.7923   3.1379
     3.6293   3.6921   3.7006   3.7134   3.8239   4.0335   4.1323   4.3588
     4.4195   4.6095   4.6794

          k = 0.1250 0.3125 0.0000 ( 53145 PWs)   bands (ev):

    -7.0168  -6.8292  -6.5204  -6.1079  -5.5764  -4.9390  -4.2037  -3.6487
    -3.4651  -3.3685  -3.1630  -2.7597  -2.4277  -2.2402  -1.6178  -1.3956
    -0.9018  -0.4010  -0.2721  -0.2228  -0.1091   0.0972   0.4518   0.8710
     0.9937   1.0043   1.5928   1.5964   1.8507   2.3008   2.7762   2.9147
     2.9868   3.1195   3.2842   3.6071   3.6752   3.9110   4.0494   4.1801
     4.3622   4.4126   4.6987

          k = 0.1250 0.3750 0.0000 ( 53147 PWs)   bands (ev):

    -6.6264  -6.4393  -6.1313  -5.7197  -5.1896  -4.5537  -4.3774  -4.1929
    -3.8892  -3.8203  -3.4838  -2.9873  -2.9615  -2.3353  -2.0490  -1.6137
    -1.0200  -0.7963  -0.0308   0.0775   0.0989   0.1922   0.4372   0.8619
     1.1668   1.3582   1.3599   1.9531   1.9586   2.1301   2.2589   2.3030
     2.5936   2.6601   2.9840   3.4545   3.4849   3.4911   3.9321   4.0676
     4.0900   4.3733   4.5367

          k = 0.1250 0.4375 0.0000 ( 53119 PWs)   bands (ev):

    -6.1664  -5.9798  -5.6727  -5.2624  -5.0409  -4.8556  -4.7338  -4.5506
    -4.1433  -4.0998  -3.6186  -3.3686  -2.9894  -2.5382  -2.2640  -1.6031
    -1.4407  -0.5783  -0.5159   0.3899   0.4951   0.5316   0.5810   0.9216
     1.2887   1.4327   1.6313   1.6768   1.7907   1.8670   1.9650   2.3416
     2.3951   2.3977   2.8587   2.8611   3.1267   3.4226   3.4655   3.9169
     4.1465   4.3496   4.7698

          k = 0.1250-0.5000 0.0000 ( 53126 PWs)   bands (ev):

    -5.6377  -5.6375  -5.4517  -5.4516  -5.1456  -5.1454  -4.7367  -4.7365
    -4.2099  -4.2097  -3.5781  -3.5779  -2.8495  -2.8494  -2.0223  -2.0222
    -1.0913  -1.0911  -0.0734  -0.0732   0.9030   0.9033   0.9467   0.9467
     1.1998   1.2001   1.4010   1.4012   1.7878   1.7880   2.2654   2.2656
     2.3570   2.3571   2.8268   2.8270   2.9485   2.9487   3.6007   3.6008
     4.3979   4.3981   4.7400

          k = 0.1875 0.1875 0.0000 ( 53109 PWs)   bands (ev):

    -7.4082  -7.2202  -6.9107  -6.4971  -5.9643  -5.3253  -4.5882  -3.7509
    -2.8076  -1.8365  -1.8364  -1.7726  -1.6557  -1.6557  -1.3582  -1.3582
    -0.9622  -0.9622  -0.6453  -0.4539  -0.4539   0.1726   0.1726   0.6360
     0.8987   0.8988   1.2298   1.6930   1.6931   2.5982   2.5982   3.0708
     3.5883   3.5883   3.6581   3.6624   3.9857   4.3717   4.5548   4.6117
     4.6117   4.7952   4.8823

          k = 0.1875 0.2500 0.0000 ( 53097 PWs)   bands (ev):

    -7.1590  -6.9712  -6.6622  -6.2493  -5.7173  -5.0793  -4.3434  -3.5074
    -2.6849  -2.5657  -2.5027  -2.2029  -1.8033  -1.5973  -1.5326  -1.4181
    -1.2883  -1.1213  -0.7261  -0.6779  -0.4079  -0.1978   0.0379   0.4381
     0.8691   0.8729   1.1276   1.4604   1.7669   1.9434   2.6631   2.7315
     2.8788   2.8861   3.1775   3.4892   3.5697   3.7477   3.9483   4.0759
     4.6482   4.7811   4.7939

          k = 0.1875 0.3125 0.0000 ( 53134 PWs)   bands (ev):

    -6.8392  -6.6518  -6.3434  -5.9313  -5.4004  -4.7637  -4.0293  -3.4753
    -3.2920  -3.1951  -2.9902  -2.5876  -2.2555  -2.0692  -1.4494  -1.2906
    -1.2250  -1.1121  -0.8157  -0.7443  -0.3995  -0.1044   0.0073   0.1973
     0.7230   1.0203   1.1576   1.4244   1.7547   1.9576   2.0247   2.1315
     2.2276   2.4232   2.8148   3.1169   3.1355   3.3168   3.7513   3.9236
     4.1283   4.3451   4.6258

          k = 0.1875 0.3750 0.0000 ( 53123 PWs)   bands (ev):

    -6.4493  -6.2624  -5.9547  -5.5436  -5.0140  -4.3789  -4.2030  -4.0188
    -3.7155  -3.6464  -3.3106  -2.8144  -2.7890  -2.1640  -1.8775  -1.4449
    -0.9181  -0.8506  -0.7387  -0.6463  -0.4183  -0.0607   0.2616   0.3375
     0.4848   1.0912   1.1858   1.3223   1.4389   1.6078   1.7278   1.8002
     2.0939   2.1429   2.4001   2.6248   2.6249   3.2338   3.4453   3.7517
     3.9148   4.1229   4.1781

          k = 0.1875 0.4375 0.0000 ( 53144 PWs)   bands (ev):

    -5.9899  -5.8035  -5.4967  -5.0868  -4.8657  -4.6806  -4.5588  -4.3760
    -3.9692  -3.9256  -3.4451  -3.1953  -2.8168  -2.3661  -2.0927  -1.4327
    -1.2721  -0.4779  -0.4121  -0.3869  -0.2609  -0.0077   0.4195   0.5941
     0.6187   0.7001   0.8864   0.9190   1.0959   1.4842   1.5208   1.8008
     1.9506   2.0416   2.2265   2.5041   2.6429   3.0236   3.0574   3.3047
     3.6155   3.9594   4.1049

          k = 0.1875-0.5000 0.0000 ( 53118 PWs)   bands (ev):

    -5.4618  -5.4616  -5.2760  -5.2759  -4.9702  -4.9701  -4.5618  -4.5616
    -4.0356  -4.0354  -3.4046  -3.4044  -2.6770  -2.6769  -1.8513  -1.8511
    -0.9235  -0.9233   0.0067   0.0070   0.0978   0.0979   0.2039   0.2040
     0.5460   0.5461   0.9161   0.9162   1.2332   1.2334   1.4202   1.4204
     2.0299   2.0301   2.4712   2.4714   2.7641   2.7642   3.0284   3.0286
     3.5577   3.5579   4.4374

          k = 0.2500 0.2500 0.0000 ( 53157 PWs)   bands (ev):

    -6.9102  -6.7227  -6.4142  -6.0019  -5.4708  -4.8338  -4.0990  -3.2645
    -2.4442  -2.4441  -2.3244  -2.2625  -2.2624  -1.9634  -1.9634  -1.5652
    -1.5652  -1.2934  -1.0539  -1.0538  -0.4233  -0.4233  -0.1722   0.3043
     0.3043   1.0901   1.1040   1.1041   1.6885   1.8976   2.0158   2.0159
     2.0719   2.3638   2.7558   3.0173   3.0173   3.2581   3.6884   3.8655
     4.1061   4.1061   4.5683

          k = 0.2500 0.3125 0.0000 ( 53162 PWs)   bands (ev):

    -6.5909  -6.4038  -6.0959  -5.6845  -5.1544  -4.5187  -3.7855  -3.2329
    -3.0500  -2.9527  -2.7488  -2.3475  -2.1351  -2.0149  -1.9550  -1.8301
    -1.6567  -1.2593  -1.2164  -0.9870  -0.7286  -0.4957  -0.0934   0.1264
     0.3388   0.6024   1.0590   1.2371   1.3149   1.4235   1.4761   1.6042
     1.9651   2.0164   2.2079   2.3720   2.5028   3.1126   3.2339   3.4450
     3.7933   3.9987   4.3221

          k = 0.2500 0.3750 0.0000 ( 53145 PWs)   bands (ev):

    -6.2017  -6.0151  -5.7078  -5.2974  -4.7687  -4.1346  -3.9593  -3.7754
    -3.4726  -3.4033  -3.0685  -2.5729  -2.5482  -1.9261  -1.7584  -1.6381
    -1.5790  -1.2812  -1.2173  -0.8639  -0.6159  -0.4547  -0.2746   0.2623
     0.4026   0.4202   0.5521   0.6921   0.9057   0.9670   1.2948   1.5616
     1.7552   1.7740   1.8487   2.3076   2.4543   2.6613   2.6858   3.1192
     3.6825   3.9131   3.9210

          k = 0.2500 0.4375 0.0000 ( 53163 PWs)   bands (ev):

    -5.7431  -5.5570  -5.2506  -4.8414  -4.6208  -4.4360  -4.3143  -4.1319
    -3.7258  -3.6821  -3.2027  -2.9531  -2.5758  -2.1258  -1.8544  -1.3160
    -1.1960  -1.1359  -1.0516  -0.8155  -0.4542  -0.2551  -0.1689  -0.0686
    -0.0549   0.0908   0.2864   0.6588   0.7000   0.9206   0.9652   1.1643
     1.4122   1.7757   2.0034   2.2061   2.2400   2.5123   2.7647   3.0583
     3.3082   3.3711   3.7851

          k = 0.2500-0.5000 0.0000 ( 53124 PWs)   bands (ev):

    -5.2159  -5.2157  -5.0304  -5.0302  -4.7251  -4.7249  -4.3173  -4.3172
    -3.7920  -3.7918  -3.1622  -3.1620  -2.4362  -2.4361  -1.6134  -1.6133
    -0.8064  -0.8061  -0.7223  -0.7220  -0.5917  -0.5917  -0.3342  -0.3341
     0.0926   0.0928   0.3627   0.3628   0.5946   0.5948   1.1973   1.1974
     1.4685   1.4687   1.9057   1.9059   2.7048   2.7050   2.7298   2.7300
     3.2882   3.2884   3.6455

          k = 0.3125 0.3125 0.0000 ( 53201 PWs)   bands (ev):

    -6.2724  -6.0857  -5.7783  -5.3677  -4.8387  -4.2043  -3.4727  -2.9221
    -2.9220  -2.7396  -2.7396  -2.6419  -2.4394  -2.4394  -2.0395  -2.0395
    -1.7067  -1.5259  -1.5258  -0.8927  -0.8927  -0.6839  -0.1655  -0.1655
     0.3381   0.3539   0.6265   0.6386   0.6387   0.8414   1.2308   1.5545
     1.5546   1.6894   1.7840   2.2418   2.3907   2.5608   2.5609   3.0565
     3.6565   3.6565   3.8588

          k = 0.3125 0.3750 0.0000 ( 53199 PWs)   bands (ev):

    -5.8840  -5.6977  -5.3911  -4.9815  -4.4539  -3.8211  -3.6466  -3.4631
    -3.1611  -3.0915  -2.7584  -2.5428  -2.3621  -2.2633  -2.2392  -2.0627
    -1.6638  -1.6230  -1.3325  -1.1317  -0.8988  -0.4981  -0.3872  -0.3028
    -0.1859  -0.0660   0.1548   0.2028   0.5283   0.8305   0.8354   1.0277
     1.0345   1.6467   1.8098   1.9797   2.0726   2.3844   2.6326   2.8405
     3.0566   3.1814   3.9340

          k = 0.3125 0.4375 0.0000 ( 53184 PWs)   bands (ev):

    -5.4263  -5.2406  -4.9349  -4.5266  -4.3066  -4.1222  -4.0005  -3.8187
    -3.4136  -3.3698  -2.8920  -2.6427  -2.2681  -2.0963  -1.9163  -1.8187
    -1.6175  -1.5567  -1.1997  -1.0056  -0.9241  -0.7922  -0.7862  -0.6166
    -0.5322  -0.1061  -0.0715   0.1592   0.2151   0.3974   0.6356   1.0006
     1.2279   1.2681   1.4451   1.7106   2.3311   2.3596   2.5110   2.5312
     3.0913   3.3589   3.4540

          k = 0.3125-0.5000 0.0000 ( 53132 PWs)   bands (ev):

    -4.9004  -4.9001  -4.7152  -4.7151  -4.4105  -4.4103  -4.0036  -4.0035
    -3.4795  -3.4794  -2.8514  -2.8512  -2.1284  -2.1283  -1.5844  -1.5842
    -1.4037  -1.4036  -1.3228  -1.3226  -1.0836  -1.0835  -0.7192  -0.7191
    -0.3416  -0.3414  -0.1755  -0.1754   0.4355   0.4357   0.6510   0.6512
     1.1496   1.1498   1.7366   1.7368   1.9795   1.9797   2.7967   2.7969
     3.1112   3.1113   3.5218

          k = 0.3750 0.3750 0.0000 ( 53236 PWs)   bands (ev):

    -5.4966  -5.3108  -5.0049  -4.5964  -4.0701  -3.4391  -3.2655  -3.2654
    -3.0826  -3.0826  -2.7816  -2.7815  -2.7117  -2.3805  -2.3805  -1.8872
    -1.8651  -1.8651  -1.2305  -1.2305  -1.0723  -0.9915  -0.8593  -0.5986
    -0.5041  -0.5040  -0.1727   0.0912   0.3033   0.3034   0.3313   0.9346
     1.2011   1.2220   1.2220   1.6452   2.2312   2.2313   2.4460   2.4647
     3.0255   3.3303   3.3303

          k = 0.3750 0.4375 0.0000 ( 53180 PWs)   bands (ev):

    -5.0402  -4.8549  -4.5499  -4.1427  -3.9235  -3.7396  -3.6181  -3.4370
    -3.0335  -2.9893  -2.8163  -2.6352  -2.5132  -2.3351  -2.2656  -1.9350
    -1.8953  -1.7191  -1.5382  -1.4586  -1.4024  -1.2183  -1.1689  -0.8523
    -0.7701  -0.4784  -0.3375  -0.3095  -0.0656   0.3026   0.5160   0.5660
     0.7617   1.0176   1.5427   1.6028   1.7159   1.8485   2.5761   2.6653
     2.7949   2.9803   3.3901

          k = 0.3750-0.5000 0.0000 ( 53234 PWs)   bands (ev):

    -4.5157  -4.5154  -4.3309  -4.3308  -4.0270  -4.0269  -3.6213  -3.6212
    -3.0989  -3.0988  -2.4741  -2.4739  -2.3002  -2.3000  -2.1198  -2.1197
    -1.8205  -1.8204  -1.7610  -1.7608  -1.4026  -1.4024  -0.9857  -0.9856
    -0.8235  -0.8233  -0.2733  -0.2732   0.0120   0.0122   0.4353   0.4355
     1.0267   1.0268   1.2463   1.2464   2.1318   2.1319   2.1622   2.1624
     3.1630   3.1632   3.3911

          k = 0.4375 0.4375 0.0000 ( 53278 PWs)   bands (ev):

    -4.5853  -4.4005  -4.0965  -3.6906  -3.4723  -3.4723  -3.2891  -3.2891
    -3.1679  -2.9876  -2.9876  -2.5859  -2.5858  -2.5427  -2.3682  -2.1878
    -2.0695  -2.0694  -1.8883  -1.8290  -1.4703  -1.4340  -1.4340  -1.0522
    -0.8926  -0.7081  -0.7081  -0.3407  -0.0557   0.1011   0.1012   0.3684
     0.9596   1.0214   1.0215   1.1799   2.0324   2.0324   2.0653   2.0963
     3.0977   3.1332   3.1332

          k = 0.4375-0.5000 0.0000 ( 53318 PWs)   bands (ev):

    -4.0624  -4.0622  -3.8783  -3.8782  -3.5754  -3.5752  -3.1714  -3.1713
    -2.9536  -2.9533  -2.7722  -2.7720  -2.6506  -2.6504  -2.4717  -2.4716
    -2.0712  -2.0710  -2.0318  -2.0316  -1.5383  -1.5381  -1.3043  -1.3042
    -0.9067  -0.9065  -0.4737  -0.4735  -0.2004  -0.2002   0.4308   0.4309
     0.6281   0.6283   1.4085   1.4087   1.5833   1.5835   2.4433   2.4435
     2.6633   2.6635   3.5410

          k =-0.5000-0.5000 0.0000 ( 53320 PWs)   bands (ev):

    -3.5416  -3.5413  -3.5413  -3.5411  -3.3582  -3.3581  -3.3581  -3.3580
    -3.0566  -3.0564  -3.0564  -3.0563  -2.6546  -2.6544  -2.6544  -2.6543
    -2.1379  -2.1376  -2.1376  -2.1375  -1.5022  -1.5020  -1.5020  -1.5019
    -0.7765  -0.7763  -0.7763  -0.7762   0.0334   0.0337   0.0337   0.0338
     0.9543   0.9545   0.9545   0.9546   1.9657   1.9660   1.9660   1.9661
     3.0674   3.0674   3.0675

     the Fermi energy is     3.1444 ev

!    total energy              =    -299.05802073 Ry
     Harris-Foulkes estimate   =    -299.05802074 Ry
     estimated scf accuracy    <          4.0E-09 Ry

     The total energy is the sum of the following terms:

     one-electron contribution =   -2209.98291818 Ry
     hartree contribution      =    1128.08186813 Ry
     xc contribution           =    -240.40700191 Ry
     ewald contribution        =    1023.24958468 Ry
     smearing contrib. (-TS)   =       0.00044655 Ry

     convergence has been achieved in  13 iterations

     negative rho (up, down):  6.496E-06 0.000E+00

     Forces acting on atoms (cartesian axes, Ry/au):

     atom    1 type  1   force =     0.00000000    0.00000000   -0.00080879
     atom    2 type  1   force =     0.00000000    0.00000000   -0.00080824
     atom    3 type  1   force =     0.00000000    0.00000000   -0.00076971
     atom    4 type  1   force =     0.00000000    0.00000000   -0.00076971
     atom    5 type  1   force =     0.00000000    0.00000000    0.00073931
     atom    6 type  1   force =     0.00000000    0.00000000    0.00074535
     atom    7 type  1   force =     0.00000000    0.00000000    0.00031022
     atom    8 type  1   force =     0.00000000    0.00000000    0.00031022
     atom    9 type  1   force =     0.00000000    0.00000000    0.00027265
     atom   10 type  1   force =     0.00000000    0.00000000    0.00028744
     atom   11 type  1   force =     0.00000000    0.00000000    0.00008404
     atom   12 type  1   force =     0.00000000    0.00000000    0.00008404
     atom   13 type  1   force =     0.00000000    0.00000000   -0.00008281
     atom   14 type  1   force =     0.00000000    0.00000000   -0.00008457
     atom   15 type  1   force =     0.00000000    0.00000000   -0.00028382
     atom   16 type  1   force =     0.00000000    0.00000000   -0.00028382
     atom   17 type  1   force =     0.00000000    0.00000000   -0.00029805
     atom   18 type  1   force =     0.00000000    0.00000000   -0.00031441
     atom   19 type  1   force =     0.00000000    0.00000000   -0.00074297
     atom   20 type  1   force =     0.00000000    0.00000000   -0.00074297
     atom   21 type  1   force =     0.00000000    0.00000000    0.00077412
     atom   22 type  1   force =     0.00000000    0.00000000    0.00077011
     atom   23 type  1   force =     0.00000000    0.00000000    0.00080617
     atom   24 type  1   force =     0.00000000    0.00000000    0.00080617

     Total force =     0.002814     Total SCF correction =     0.000098


     Computing stress (Cartesian axis) and pressure


     negative rho (up, down):  6.496E-06 0.000E+00
          total   stress  (Ry/bohr**3)                   (kbar)     P=   -5.07
  -0.00005856   0.00000000   0.00000000         -8.61      0.00      0.00
   0.00000000  -0.00005856   0.00000000          0.00     -8.61      0.00
   0.00000000   0.00000000   0.00001378          0.00      0.00      2.03


     bfgs converged in   6 scf cycles and   5 bfgs steps
     (criteria: energy <  1.0E-04 Ry, force <  1.0E-03 Ry/Bohr)

     End of BFGS Geometry Optimization

     Final energy   =    -299.0580207336 Ry
Begin final coordinates

ATOMIC_POSITIONS (crystal)
Al       0.000000000   0.000000000  -0.000428634
Al       0.500000000   0.500000000  -0.000428827
Al       0.500000000   0.000000000   0.050170895
Al       0.000000000   0.500000000   0.050170895
Al       0.000000000   0.000000000   0.100119378
Al       0.500000000   0.500000000   0.100121900
Al       0.500000000   0.000000000   0.150116441
Al       0.000000000   0.500000000   0.150116441
Al       0.000000000   0.000000000   0.199995992
Al       0.500000000   0.500000000   0.200000231
Al       0.500000000   0.000000000   0.249975805
Al       0.000000000   0.500000000   0.249975805
Al       0.000000000   0.000000000   0.300023812
Al       0.500000000   0.500000000   0.300022968
Al       0.500000000   0.000000000   0.350003435
Al       0.000000000   0.500000000   0.350003435
Al       0.000000000   0.000000000   0.399884363
Al       0.500000000   0.500000000   0.399879426
Al       0.500000000   0.000000000   0.449880339
Al       0.000000000   0.500000000   0.449880339
Al       0.000000000   0.000000000   0.499830643
Al       0.500000000   0.500000000   0.499829078
Al       0.500000000   0.000000000   0.550427920
Al       0.000000000   0.500000000   0.550427920
End final coordinates



     Writing output data file Al_100_6_4.save/
 
     init_run     :     73.84s CPU     74.99s WALL (       1 calls)
     electrons    :   6098.82s CPU   6468.53s WALL (       6 calls)
     update_pot   :      1.19s CPU      1.27s WALL (       5 calls)
     forces       :    104.44s CPU    105.53s WALL (       6 calls)
     stress       :    640.45s CPU    643.03s WALL (       6 calls)

     Called by init_run:
     wfcinit      :     73.10s CPU     74.18s WALL (       1 calls)
     potinit      :      0.16s CPU      0.17s WALL (       1 calls)
     hinit0       :      0.46s CPU      0.47s WALL (       1 calls)

     Called by electrons:
     c_bands      :   5162.21s CPU   5513.73s WALL (      70 calls)
     sum_band     :    762.36s CPU    774.57s WALL (      70 calls)
     v_of_rho     :     10.02s CPU     10.45s WALL (      75 calls)
     newd         :      4.65s CPU      7.69s WALL (      75 calls)
     mix_rho      :    160.46s CPU    162.77s WALL (      70 calls)

     Called by c_bands:
     init_us_2    :    157.34s CPU    157.92s WALL (    6885 calls)
     cegterg      :   4816.07s CPU   5155.59s WALL (    3150 calls)

     Called by sum_band:
     sum_band:bec :      0.12s CPU      0.13s WALL (    3150 calls)
     addusdens    :      4.52s CPU      7.35s WALL (      70 calls)

     Called by *egterg:
     h_psi        :   2993.45s CPU   3087.02s WALL (    9485 calls)
     s_psi        :    463.14s CPU    463.76s WALL (    9485 calls)
     g_psi        :     78.19s CPU     78.31s WALL (    6290 calls)
     cdiaghg      :     26.76s CPU     31.57s WALL (    9170 calls)

     Called by h_psi:
     h_psi:pot    :   2949.10s CPU   2953.81s WALL (    9485 calls)
     h_psi:calbec :    384.52s CPU    385.59s WALL (    9485 calls)
     vloc_psi     :   2100.97s CPU   2104.11s WALL (    9485 calls)
     add_vuspsi   :    463.50s CPU    464.04s WALL (    9485 calls)

     General routines
     calbec       :    624.74s CPU    626.26s WALL (   13985 calls)
     fft          :      2.91s CPU      2.92s WALL (     981 calls)
     ffts         :     59.45s CPU     59.53s WALL (   20027 calls)
     fftw         :   2175.12s CPU   2177.52s WALL (  737216 calls)
 
     Parallel routines
 
     PWSCF        :      1h55m CPU      2h 1m WALL

 
   This run was terminated on:   0:40:46  31May2020            

=------------------------------------------------------------------------------=
   JOB DONE.
=------------------------------------------------------------------------------=
