--------------------------------------------------------------------------
[[19339,1],0]: A high-performance Open MPI point-to-point messaging module
was unable to find any relevant network interfaces:

Module: OpenFabrics (openib)
  Host: ubuntu

Another transport will be used instead, although this may result in
lower performance.
--------------------------------------------------------------------------

     Program PWSCF v.5.1 starts on 28May2020 at 21:13:52 

     This program is part of the open-source Quantum ESPRESSO suite
     for quantum simulation of materials; please cite
         "P. Giannozzi et al., J. Phys.:Condens. Matter 21 395502 (2009);
          URL http://www.quantum-espresso.org", 
     in publications or presentations arising from this work. More details at
     http://www.quantum-espresso.org/quote

     Parallel version (MPI), running on     1 processors
     Reading input from Al_100_surf_vac_5.pw.in

     Current dimensions of program PWSCF are:
     Max number of different atomic species (ntypx) = 10
     Max number of k-points (npk) =  40000
     Max angular momentum in pseudopotentials (lmaxx) =  3

     Subspace diagonalization in iterative solution of the eigenvalue problem:
     a serial algorithm will be used

     Found symmetry operation: I + ( -0.5000 -0.5000  0.0000)
     This is a supercell, fractional translations are disabled

     G-vector sticks info
     --------------------
     sticks:   dense  smooth     PW     G-vecs:    dense   smooth      PW
     Sum         681     681    421                95431    95431   45117



     bravais-lattice index     =            6
     lattice parameter (alat)  =       7.6050  a.u.
     unit-cell volume          =    3078.9008 (a.u.)^3
     number of atoms/cell      =            8
     number of atomic types    =            1
     number of electrons       =        24.00
     number of Kohn-Sham states=           16
     kinetic-energy cutoff     =      80.0000  Ry
     charge density cutoff     =     150.0000  Ry
     convergence threshold     =      1.0E-06
     mixing beta               =       0.3000
     number of iterations used =            8  local-TF  mixing
     Exchange-correlation      =  SLA  PW   PBE  PBE ( 1  4  3  4 0)
     nstep                     =           50


     celldm(1)=   7.605000  celldm(2)=   0.000000  celldm(3)=   7.000000
     celldm(4)=   0.000000  celldm(5)=   0.000000  celldm(6)=   0.000000

     crystal axes: (cart. coord. in units of alat)
               a(1) = (   1.000000   0.000000   0.000000 )  
               a(2) = (   0.000000   1.000000   0.000000 )  
               a(3) = (   0.000000   0.000000   7.000000 )  

     reciprocal axes: (cart. coord. in units 2 pi/alat)
               b(1) = (  1.000000  0.000000  0.000000 )  
               b(2) = (  0.000000  1.000000  0.000000 )  
               b(3) = (  0.000000  0.000000  0.142857 )  


     PseudoPot. # 1 for Al read from file:
     ./Al.pbe-n-van.UPF
     MD5 check sum: b11ded24487aef5bc42d5c7a2e22a7b6
     Pseudo is Ultrasoft + core correction, Zval =  3.0
     Generated by new atomic code, or converted to UPF format
     Using radial grid of  893 points,  2 beta functions with: 
                l(1) =   0
                l(2) =   1
     Q(r) pseudized with  8 coefficients,  rinner =    0.900   0.900   0.900


     atomic species   valence    mass     pseudopotential
        Al             3.00    26.98000     Al( 1.00)

      8 Sym. Ops. (no inversion) found



   Cartesian axes

     site n.     atom                  positions (alat units)
         1           Al  tau(   1) = (   0.0000000   0.0000000   0.0000000  )
         2           Al  tau(   2) = (   0.5000000   0.5000000   0.0000000  )
         3           Al  tau(   3) = (   0.5000000   0.0000000   0.5000000  )
         4           Al  tau(   4) = (   0.0000000   0.5000000   0.5000000  )
         5           Al  tau(   5) = (   0.0000000   0.0000000   1.0000000  )
         6           Al  tau(   6) = (   0.5000000   0.5000000   1.0000000  )
         7           Al  tau(   7) = (   0.5000000   0.0000000   1.5000000  )
         8           Al  tau(   8) = (   0.0000000   0.5000000   1.5000000  )

     number of k points=    45  Marzari-Vanderbilt smearing, width (Ry)=  0.0250
                       cart. coord. in units 2pi/alat
        k(    1) = (   0.0000000   0.0000000   0.0000000), wk =   0.0078125
        k(    2) = (   0.0000000   0.0625000   0.0000000), wk =   0.0312500
        k(    3) = (   0.0000000   0.1250000   0.0000000), wk =   0.0312500
        k(    4) = (   0.0000000   0.1875000   0.0000000), wk =   0.0312500
        k(    5) = (   0.0000000   0.2500000   0.0000000), wk =   0.0312500
        k(    6) = (   0.0000000   0.3125000   0.0000000), wk =   0.0312500
        k(    7) = (   0.0000000   0.3750000   0.0000000), wk =   0.0312500
        k(    8) = (   0.0000000   0.4375000   0.0000000), wk =   0.0312500
        k(    9) = (   0.0000000  -0.5000000   0.0000000), wk =   0.0156250
        k(   10) = (   0.0625000   0.0625000   0.0000000), wk =   0.0312500
        k(   11) = (   0.0625000   0.1250000   0.0000000), wk =   0.0625000
        k(   12) = (   0.0625000   0.1875000   0.0000000), wk =   0.0625000
        k(   13) = (   0.0625000   0.2500000   0.0000000), wk =   0.0625000
        k(   14) = (   0.0625000   0.3125000   0.0000000), wk =   0.0625000
        k(   15) = (   0.0625000   0.3750000   0.0000000), wk =   0.0625000
        k(   16) = (   0.0625000   0.4375000   0.0000000), wk =   0.0625000
        k(   17) = (   0.0625000  -0.5000000   0.0000000), wk =   0.0312500
        k(   18) = (   0.1250000   0.1250000   0.0000000), wk =   0.0312500
        k(   19) = (   0.1250000   0.1875000   0.0000000), wk =   0.0625000
        k(   20) = (   0.1250000   0.2500000   0.0000000), wk =   0.0625000
        k(   21) = (   0.1250000   0.3125000   0.0000000), wk =   0.0625000
        k(   22) = (   0.1250000   0.3750000   0.0000000), wk =   0.0625000
        k(   23) = (   0.1250000   0.4375000   0.0000000), wk =   0.0625000
        k(   24) = (   0.1250000  -0.5000000   0.0000000), wk =   0.0312500
        k(   25) = (   0.1875000   0.1875000   0.0000000), wk =   0.0312500
        k(   26) = (   0.1875000   0.2500000   0.0000000), wk =   0.0625000
        k(   27) = (   0.1875000   0.3125000   0.0000000), wk =   0.0625000
        k(   28) = (   0.1875000   0.3750000   0.0000000), wk =   0.0625000
        k(   29) = (   0.1875000   0.4375000   0.0000000), wk =   0.0625000
        k(   30) = (   0.1875000  -0.5000000   0.0000000), wk =   0.0312500
        k(   31) = (   0.2500000   0.2500000   0.0000000), wk =   0.0312500
        k(   32) = (   0.2500000   0.3125000   0.0000000), wk =   0.0625000
        k(   33) = (   0.2500000   0.3750000   0.0000000), wk =   0.0625000
        k(   34) = (   0.2500000   0.4375000   0.0000000), wk =   0.0625000
        k(   35) = (   0.2500000  -0.5000000   0.0000000), wk =   0.0312500
        k(   36) = (   0.3125000   0.3125000   0.0000000), wk =   0.0312500
        k(   37) = (   0.3125000   0.3750000   0.0000000), wk =   0.0625000
        k(   38) = (   0.3125000   0.4375000   0.0000000), wk =   0.0625000
        k(   39) = (   0.3125000  -0.5000000   0.0000000), wk =   0.0312500
        k(   40) = (   0.3750000   0.3750000   0.0000000), wk =   0.0312500
        k(   41) = (   0.3750000   0.4375000   0.0000000), wk =   0.0625000
        k(   42) = (   0.3750000  -0.5000000   0.0000000), wk =   0.0312500
        k(   43) = (   0.4375000   0.4375000   0.0000000), wk =   0.0312500
        k(   44) = (   0.4375000  -0.5000000   0.0000000), wk =   0.0312500
        k(   45) = (  -0.5000000  -0.5000000   0.0000000), wk =   0.0078125

     Dense  grid:    95431 G-vectors     FFT dimensions: (  30,  30, 216)

     Largest allocated arrays     est. size (Mb)     dimensions
        Kohn-Sham Wavefunctions         9.11 Mb     (   37302,   16)
        NL pseudopotentials            18.21 Mb     (   37302,   32)
        Each V/rho on FFT grid          2.97 Mb     (  194400)
        Each G-vector array             0.73 Mb     (   95431)
        G-vector shells                 0.03 Mb     (    3463)
     Largest temporary arrays     est. size (Mb)     dimensions
        Auxiliary wavefunctions        36.43 Mb     (   37302,   64)
        Each subspace H/S matrix        0.06 Mb     (      64,   64)
        Each <psi_i|beta_j> matrix      0.01 Mb     (      32,   16)
        Arrays for rho mixing          23.73 Mb     (  194400,    8)

     Initial potential from superposition of free atoms

     starting charge   23.98028, renormalised to   24.00000

     negative rho (up, down):  5.394E-05 0.000E+00
     Starting wfc are   32 randomized atomic wfcs

     total cpu time spent up to now is       51.3 secs

     per-process dynamical memory:   484.9 Mb

     Self-consistent Calculation

     iteration #  1     ecut=    80.00 Ry     beta=0.30
     Davidson diagonalization with overlap
     ethr =  1.00E-02,  avg # of iterations =  2.8

     total cpu time spent up to now is      142.4 secs

     total energy              =     -99.64219762 Ry
     Harris-Foulkes estimate   =     -99.67568911 Ry
     estimated scf accuracy    <       0.56427524 Ry

     iteration #  2     ecut=    80.00 Ry     beta=0.30
     Davidson diagonalization with overlap
     ethr =  2.35E-03,  avg # of iterations =  1.0

     negative rho (up, down):  4.136E-05 0.000E+00

     total cpu time spent up to now is      198.7 secs

     total energy              =     -99.51782179 Ry
     Harris-Foulkes estimate   =     -99.64915178 Ry
     estimated scf accuracy    <       0.42564857 Ry

     iteration #  3     ecut=    80.00 Ry     beta=0.30
     Davidson diagonalization with overlap
     ethr =  1.77E-03,  avg # of iterations =  2.3

     total cpu time spent up to now is      263.9 secs

     total energy              =     -99.57596906 Ry
     Harris-Foulkes estimate   =     -99.61460152 Ry
     estimated scf accuracy    <       0.17915429 Ry

     iteration #  4     ecut=    80.00 Ry     beta=0.30
     Davidson diagonalization with overlap
     ethr =  7.46E-04,  avg # of iterations =  2.0

     total cpu time spent up to now is      325.0 secs

     total energy              =     -99.59021018 Ry
     Harris-Foulkes estimate   =     -99.59290978 Ry
     estimated scf accuracy    <       0.01445940 Ry

     iteration #  5     ecut=    80.00 Ry     beta=0.30
     Davidson diagonalization with overlap
     ethr =  6.02E-05,  avg # of iterations =  3.4

     total cpu time spent up to now is      401.7 secs

     total energy              =     -99.59079540 Ry
     Harris-Foulkes estimate   =     -99.59196538 Ry
     estimated scf accuracy    <       0.01233234 Ry

     iteration #  6     ecut=    80.00 Ry     beta=0.30
     Davidson diagonalization with overlap
     ethr =  5.14E-05,  avg # of iterations =  2.3

     total cpu time spent up to now is      465.9 secs

     total energy              =     -99.58126769 Ry
     Harris-Foulkes estimate   =     -99.59380077 Ry
     estimated scf accuracy    <       0.05794404 Ry

     iteration #  7     ecut=    80.00 Ry     beta=0.30
     Davidson diagonalization with overlap
     ethr =  5.14E-05,  avg # of iterations =  3.1

     negative rho (up, down):  5.301E-04 0.000E+00

     total cpu time spent up to now is      539.5 secs

     total energy              =     -99.59164110 Ry
     Harris-Foulkes estimate   =     -99.59155223 Ry
     estimated scf accuracy    <       0.01602126 Ry

     iteration #  8     ecut=    80.00 Ry     beta=0.30
     Davidson diagonalization with overlap
     ethr =  5.14E-05,  avg # of iterations =  1.0

     negative rho (up, down):  9.177E-03 0.000E+00

     total cpu time spent up to now is      595.5 secs

     total energy              =     -99.58993233 Ry
     Harris-Foulkes estimate   =     -99.59195764 Ry
     estimated scf accuracy    <       0.02648283 Ry

     iteration #  9     ecut=    80.00 Ry     beta=0.30
     Davidson diagonalization with overlap
     ethr =  5.14E-05,  avg # of iterations =  1.0

     negative rho (up, down):  1.558E-02 0.000E+00

     total cpu time spent up to now is      651.0 secs

     total energy              =     -99.58472919 Ry
     Harris-Foulkes estimate   =     -99.59018075 Ry
     estimated scf accuracy    <       0.01820685 Ry

     iteration # 10     ecut=    80.00 Ry     beta=0.30
     Davidson diagonalization with overlap
     ethr =  5.14E-05,  avg # of iterations =  2.1

     negative rho (up, down):  9.249E-03 0.000E+00

     total cpu time spent up to now is      716.8 secs

     total energy              =     -99.58756986 Ry
     Harris-Foulkes estimate   =     -99.58905505 Ry
     estimated scf accuracy    <       0.00900400 Ry

     iteration # 11     ecut=    80.00 Ry     beta=0.30
     Davidson diagonalization with overlap
     ethr =  3.75E-05,  avg # of iterations =  1.4

     negative rho (up, down):  9.830E-03 0.000E+00

     total cpu time spent up to now is      773.1 secs

     total energy              =     -99.58809342 Ry
     Harris-Foulkes estimate   =     -99.58809213 Ry
     estimated scf accuracy    <       0.00075437 Ry

     iteration # 12     ecut=    80.00 Ry     beta=0.30
     Davidson diagonalization with overlap
     ethr =  3.14E-06,  avg # of iterations =  2.6

     negative rho (up, down):  3.954E-03 0.000E+00

     total cpu time spent up to now is      838.5 secs

     total energy              =     -99.58809788 Ry
     Harris-Foulkes estimate   =     -99.58814178 Ry
     estimated scf accuracy    <       0.00033887 Ry

     iteration # 13     ecut=    80.00 Ry     beta=0.30
     Davidson diagonalization with overlap
     ethr =  1.41E-06,  avg # of iterations =  2.1

     negative rho (up, down):  1.023E-03 0.000E+00

     total cpu time spent up to now is      900.1 secs

     total energy              =     -99.58810708 Ry
     Harris-Foulkes estimate   =     -99.58812347 Ry
     estimated scf accuracy    <       0.00002652 Ry

     iteration # 14     ecut=    80.00 Ry     beta=0.30
     Davidson diagonalization with overlap
     ethr =  1.11E-07,  avg # of iterations =  3.0

     negative rho (up, down):  6.283E-04 0.000E+00

     total cpu time spent up to now is      975.1 secs

     total energy              =     -99.58810933 Ry
     Harris-Foulkes estimate   =     -99.58811647 Ry
     estimated scf accuracy    <       0.00001725 Ry

     iteration # 15     ecut=    80.00 Ry     beta=0.30
     Davidson diagonalization with overlap
     ethr =  7.19E-08,  avg # of iterations =  1.0

     negative rho (up, down):  1.109E-04 0.000E+00

     total cpu time spent up to now is     1032.3 secs

     total energy              =     -99.58810505 Ry
     Harris-Foulkes estimate   =     -99.58810968 Ry
     estimated scf accuracy    <       0.00001755 Ry

     iteration # 16     ecut=    80.00 Ry     beta=0.30
     Davidson diagonalization with overlap
     ethr =  7.19E-08,  avg # of iterations =  2.0

     negative rho (up, down):  2.183E-05 0.000E+00

     total cpu time spent up to now is     1102.3 secs

     total energy              =     -99.58810694 Ry
     Harris-Foulkes estimate   =     -99.58810756 Ry
     estimated scf accuracy    <       0.00000136 Ry

     iteration # 17     ecut=    80.00 Ry     beta=0.30
     Davidson diagonalization with overlap
     ethr =  5.65E-09,  avg # of iterations =  2.2

     negative rho (up, down):  7.708E-06 0.000E+00

     total cpu time spent up to now is     1160.2 secs

     End of self-consistent calculation

          k = 0.0000 0.0000 0.0000 ( 37267 PWs)   bands (ev):

   -11.5089 -10.1107  -7.9225  -5.0533  -3.2615  -3.2615  -2.7290  -1.9719
    -1.9719  -1.8852  -1.8851  -0.4453  -0.4452   0.0747   0.0747   0.7468

          k = 0.0000 0.0625 0.0000 ( 37205 PWs)   bands (ev):

   -11.4732 -10.0753  -7.8874  -5.0186  -3.8249  -3.2287  -2.6958  -2.5178
    -1.9391  -1.8250  -1.2742  -0.4834  -0.3467   0.1074   0.1317   0.7792

          k = 0.0000 0.1250 0.0000 ( 37193 PWs)   bands (ev):

   -11.3661  -9.9690  -7.7824  -4.9144  -4.7228  -3.3911  -3.1303  -2.5963
    -1.8408  -1.7205  -1.2995  -0.4255  -0.0513   0.2053   0.8757   1.1413

          k = 0.0000 0.1875 0.0000 ( 37198 PWs)   bands (ev):

   -11.1879  -9.7922  -7.6075  -5.6177  -4.7411  -4.2719  -2.9662  -2.4306
    -2.1610  -1.6769  -1.5519  -0.1811   0.3686   0.5774   1.0326   1.0641

          k = 0.0000 0.2500 0.0000 ( 37192 PWs)   bands (ev):

   -10.9387  -9.5450  -7.3630  -6.4658  -5.1101  -4.4991  -2.9851  -2.7365
    -2.1989  -1.4474  -1.3250  -0.1786   0.0570   0.5971   1.2384   1.4667

          k = 0.0000 0.3125 0.0000 ( 37174 PWs)   bands (ev):

   -10.6190  -9.2277  -7.2558  -7.0494  -5.8924  -4.1888  -3.7558  -2.4412
    -1.9016  -1.1524  -1.1509  -0.7863   0.3363   0.7114   0.8909   1.2930

          k = 0.0000 0.3750 0.0000 ( 37172 PWs)   bands (ev):

   -10.2292  -8.8409  -7.9833  -6.6671  -6.6134  -4.4670  -3.8113  -2.0801
    -1.6715  -1.5392  -0.7918  -0.5856   0.0216   0.4268   0.8990   1.2499

          k = 0.0000 0.4375 0.0000 ( 37222 PWs)   bands (ev):

    -9.7698  -8.6459  -8.3852  -7.2703  -6.2167  -5.1154  -3.3677  -2.2909
    -1.6533  -1.1131  -0.6024  -0.3656  -0.1679  -0.0854   0.6834   0.8404

          k = 0.0000-0.5000 0.0000 ( 37186 PWs)   bands (ev):

    -9.2418  -9.2418  -7.8614  -7.8614  -5.6991  -5.6991  -2.8597  -2.8597
    -1.1607  -1.1607  -0.6256  -0.6256   0.1261   0.1261   0.3154   0.3154

          k = 0.0625 0.0625 0.0000 ( 37181 PWs)   bands (ev):

   -11.4375 -10.0398  -7.8524  -4.9838  -3.7920  -3.7920  -2.6626  -2.4758
    -2.4758  -1.2143  -1.2142  -0.4097  -0.4096   0.1805   0.1805   0.8110

          k = 0.0625 0.1250 0.0000 ( 37200 PWs)   bands (ev):

   -11.3305  -9.9337  -7.7474  -4.8798  -4.6892  -3.6981  -3.3458  -2.5632
    -2.3740  -1.2621  -1.1057  -0.3107  -0.1697   0.3125   0.9042   1.2142

          k = 0.0625 0.1875 0.0000 ( 37177 PWs)   bands (ev):

   -11.1523  -9.7568  -7.5726  -5.5836  -4.7065  -4.2405  -3.5184  -2.3976
    -2.2184  -2.1146  -0.9404  -0.1608   0.3948   0.6749   1.0430   1.1045

          k = 0.0625 0.2500 0.0000 ( 37203 PWs)   bands (ev):

   -10.9032  -9.5097  -7.3282  -6.4314  -5.0765  -4.4646  -3.2875  -2.9521
    -2.1661  -1.9729  -0.7344  -0.1885   0.1791   0.6358   0.8822   1.3748

          k = 0.0625 0.3125 0.0000 ( 37175 PWs)   bands (ev):

   -10.5835  -9.1925  -7.2212  -7.0146  -5.8582  -4.1546  -3.7221  -2.9890
    -1.8691  -1.6756  -0.9660  -0.3391   0.1783   0.4142   0.8745   1.3546

          k = 0.0625 0.3750 0.0000 ( 37193 PWs)   bands (ev):

   -10.1938  -8.8058  -7.9485  -6.6324  -6.5790  -4.4330  -3.7774  -2.6260
    -1.6206  -1.5076  -1.3130  -0.5038  -0.0013   0.5543   0.7661   0.8051

          k = 0.0625 0.4375 0.0000 ( 37206 PWs)   bands (ev):

    -9.7346  -8.6109  -8.3502  -7.2357  -6.1821  -5.0812  -3.3344  -2.3034
    -2.1381  -1.1272  -1.0840  -0.8891  -0.0275   0.1849   0.4187   1.1868

          k = 0.0625-0.5000 0.0000 ( 37210 PWs)   bands (ev):

    -9.2066  -9.2066  -7.8265  -7.8265  -5.6647  -5.6647  -2.8284  -2.8284
    -1.6862  -1.6862  -0.6263  -0.6263  -0.3430  -0.3430   0.8952   0.8952

          k = 0.1250 0.1250 0.0000 ( 37179 PWs)   bands (ev):

   -11.2235  -9.8276  -7.6425  -4.7758  -4.5890  -4.5889  -3.2485  -3.2484
    -2.4639  -1.1638  -1.1638  -0.0364  -0.0363   0.9754   1.3240   1.3240

          k = 0.1250 0.1875 0.0000 ( 37156 PWs)   bands (ev):

   -11.0455  -9.6509  -7.4678  -5.4816  -4.6029  -4.4318  -4.1179  -3.0815
    -2.2987  -2.0259  -1.0054   0.1171   0.7976   0.7979   1.1117   1.3075

          k = 0.1250 0.2500 0.0000 ( 37165 PWs)   bands (ev):

   -10.7965  -9.4039  -7.2236  -6.3283  -4.9774  -4.3614  -4.1739  -2.8820
    -2.8142  -2.0678  -0.8050  -0.0421   0.0656   0.4329   1.3935   1.4559

          k = 0.1250 0.3125 0.0000 ( 37207 PWs)   bands (ev):

   -10.4771  -9.0870  -7.1174  -6.9103  -5.7560  -4.0521  -3.8740  -3.6212
    -2.5436  -1.7722  -0.9031  -0.6751  -0.3588   0.6479   0.6967   1.2645

          k = 0.1250 0.3750 0.0000 ( 37189 PWs)   bands (ev):

   -10.0877  -8.7006  -7.8441  -6.5284  -6.4757  -4.3311  -3.6760  -3.5056
    -2.1772  -1.5279  -1.4146  -1.3635  -0.0576  -0.0361   0.6612   1.0493

          k = 0.1250 0.4375 0.0000 ( 37163 PWs)   bands (ev):

    -9.6288  -8.5059  -8.2453  -7.1317  -6.0786  -4.9786  -3.2359  -3.0738
    -2.1451  -1.9901  -1.7463  -1.0211  -0.6301   0.0683   0.3579   1.3830

          k = 0.1250-0.5000 0.0000 ( 37170 PWs)   bands (ev):

    -9.1012  -9.1012  -7.7221  -7.7221  -5.5616  -5.5616  -2.7621  -2.7621
    -2.5231  -2.5231  -1.2584  -1.2584  -0.4677  -0.4677   0.8424   0.8424

          k = 0.1875 0.1875 0.0000 ( 37147 PWs)   bands (ev):

   -10.8676  -9.4744  -7.2933  -5.3125  -5.3124  -4.4305  -3.9597  -3.9597
    -2.1342  -1.8629  -1.8629   0.0166   0.8744   0.8744   1.3485   1.3773

          k = 0.1875 0.2500 0.0000 ( 37175 PWs)   bands (ev):

   -10.6190  -9.2278  -7.0495  -6.1569  -5.0878  -4.7827  -4.1898  -3.7245
    -2.6832  -1.9049  -1.6388  -0.7823   0.1270   0.5456   1.0807   1.5858

          k = 0.1875 0.3125 0.0000 ( 37186 PWs)   bands (ev):

   -10.3000  -8.9112  -6.9446  -6.7366  -5.5878  -4.7575  -3.8818  -3.4672
    -3.4052  -1.6135  -1.5344  -1.3766  -0.5726  -0.2008   1.1480   1.7011

          k = 0.1875 0.3750 0.0000 ( 37171 PWs)   bands (ev):

    -9.9110  -8.5253  -7.6703  -6.3553  -6.3040  -4.3878  -4.1616  -3.5089
    -3.0498  -2.2275  -1.4305  -1.2862  -0.8598  -0.8418   0.7640   1.1567

          k = 0.1875 0.4375 0.0000 ( 37190 PWs)   bands (ev):

    -9.4527  -8.3312  -8.0707  -6.9587  -5.9061  -4.8079  -3.9498  -3.0969
    -2.8330  -2.6144  -1.9945  -1.5613  -0.7915  -0.4786   0.2107   0.5524

          k = 0.1875-0.5000 0.0000 ( 37202 PWs)   bands (ev):

    -8.9258  -8.9258  -7.5481  -7.5481  -5.3899  -5.3899  -3.4487  -3.4487
    -2.5486  -2.5486  -2.1152  -2.1152  -0.3212  -0.3212   0.0024   0.0024

          k = 0.2500 0.2500 0.0000 ( 37217 PWs)   bands (ev):

   -10.3708  -8.9815  -6.8061  -5.9182  -5.9181  -4.5580  -4.5580  -3.9506
    -2.4526  -2.4526  -1.6799  -1.5938  -0.2585   0.3382   0.3382   1.6407

          k = 0.2500 0.3125 0.0000 ( 37224 PWs)   bands (ev):

   -10.0523  -8.6656  -6.7033  -6.4939  -5.6242  -5.3230  -4.2537  -3.6458
    -3.2171  -2.3512  -2.1612  -1.4191  -0.9802  -0.3808   0.5773   1.0378

          k = 0.2500 0.3750 0.0000 ( 37195 PWs)   bands (ev):

    -9.6640  -8.2804  -7.4274  -6.1133  -6.0661  -5.2235  -3.9307  -3.8744
    -3.2989  -3.0258  -1.8343  -1.7501  -1.0239  -0.9876   0.3700   0.6952

          k = 0.2500 0.4375 0.0000 ( 37231 PWs)   bands (ev):

    -9.2065  -8.0870  -7.8266  -6.7172  -5.6650  -4.7841  -4.5693  -3.7067
    -3.4416  -2.8201  -2.3702  -1.8329  -1.2210  -0.5837  -0.2453   0.3717

          k = 0.2500-0.5000 0.0000 ( 37208 PWs)   bands (ev):

    -8.6805  -8.6805  -7.3051  -7.3051  -5.1500  -5.1500  -4.2766  -4.2766
    -2.9375  -2.9375  -2.3318  -2.3318  -0.7924  -0.7924  -0.1169  -0.1169

          k = 0.3125 0.3125 0.0000 ( 37223 PWs)   bands (ev):

    -9.7345  -8.3504  -6.3945  -6.3945  -6.1825  -5.0297  -5.0296  -3.3663
    -3.0909  -2.9181  -2.9180  -1.8138  -1.0532  -0.1110  -0.1110   0.3083

          k = 0.3125 0.3750 0.0000 ( 37249 PWs)   bands (ev):

    -9.3471  -7.9661  -7.1159  -6.0306  -5.8029  -5.7320  -4.6560  -3.8372
    -3.6209  -2.9565  -2.5587  -2.4995  -0.7718  -0.7154  -0.3713   0.1905

          k = 0.3125 0.4375 0.0000 ( 37234 PWs)   bands (ev):

    -8.8906  -7.7738  -7.5135  -6.4095  -5.5604  -5.3559  -4.4751  -4.2656
    -4.2121  -3.1340  -2.5353  -2.1655  -1.3519  -0.9841  -0.3145   0.3685

          k = 0.3125-0.5000 0.0000 ( 37220 PWs)   bands (ev):

    -8.3658  -8.3658  -6.9937  -6.9937  -5.0515  -5.0515  -4.8423  -4.8423
    -3.7064  -3.7064  -2.1030  -2.1030  -1.4785  -1.4785   0.1084   0.1084

          k = 0.3750 0.3750 0.0000 ( 37286 PWs)   bands (ev):

    -8.9607  -7.5831  -6.7370  -6.7370  -5.4246  -5.3692  -5.3691  -4.5416
    -3.2532  -3.2532  -3.1999  -2.6033  -1.0484  -0.4370  -0.4370  -0.3805

          k = 0.3750 0.4375 0.0000 ( 37232 PWs)   bands (ev):

    -8.5054  -7.3920  -7.1322  -6.3030  -6.0061  -5.1859  -4.9792  -4.9262
    -3.8914  -3.8397  -2.8257  -2.2386  -1.6084  -1.0354  -0.0702  -0.0236

          k = 0.3750-0.5000 0.0000 ( 37250 PWs)   bands (ev):

    -7.9822  -7.9822  -6.6161  -6.6161  -5.7637  -5.7637  -4.4682  -4.4682
    -4.4151  -4.4151  -2.3655  -2.3655  -1.5503  -1.5503   0.1716   0.1716

          k = 0.4375 0.4375 0.0000 ( 37288 PWs)   bands (ev):

    -8.0518  -6.9432  -6.9432  -6.6851  -5.8317  -5.5737  -5.5737  -4.5361
    -4.4828  -3.4552  -3.4552  -2.4324  -1.6166  -0.6342  -0.6342   0.1058

          k = 0.4375-0.5000 0.0000 ( 37302 PWs)   bands (ev):

    -7.5305  -7.5305  -6.4396  -6.4396  -6.1436  -6.1436  -5.0618  -5.0618
    -4.0270  -4.0270  -2.9597  -2.9597  -1.1678  -1.1678  -0.2012  -0.2012

          k =-0.5000-0.5000 0.0000 ( 37264 PWs)   bands (ev):

    -7.0121  -7.0121  -7.0120  -7.0120  -5.6421  -5.6421  -5.6420  -5.6420
    -3.5227  -3.5227  -3.5226  -3.5226  -0.7001  -0.7001  -0.7001  -0.7001

     the Fermi energy is    -0.7635 ev

!    total energy              =     -99.58810677 Ry
     Harris-Foulkes estimate   =     -99.58810706 Ry
     estimated scf accuracy    <       0.00000017 Ry

     The total energy is the sum of the following terms:

     one-electron contribution =    -542.46671325 Ry
     hartree contribution      =     275.51706272 Ry
     xc contribution           =     -79.85039949 Ry
     ewald contribution        =     247.21173911 Ry
     smearing contrib. (-TS)   =       0.00020414 Ry

     convergence has been achieved in  17 iterations

     Forces acting on atoms (Ry/au):


     negative rho (up, down):  7.708E-06 0.000E+00
     atom    1 type  1   force =     0.00000000    0.00000000   -0.00499807
     atom    2 type  1   force =     0.00000000    0.00000000   -0.00499805
     atom    3 type  1   force =     0.00000000    0.00000000    0.00127228
     atom    4 type  1   force =     0.00000000    0.00000000    0.00127228
     atom    5 type  1   force =     0.00000000    0.00000000   -0.00126121
     atom    6 type  1   force =     0.00000000    0.00000000   -0.00126116
     atom    7 type  1   force =     0.00000000    0.00000000    0.00498696
     atom    8 type  1   force =     0.00000000    0.00000000    0.00498696

     Total force =     0.010301     Total SCF correction =     0.000638


     entering subroutine stress ...


     negative rho (up, down):  7.708E-06 0.000E+00
          total   stress  (Ry/bohr**3)                   (kbar)     P=   -6.19
  -0.00008017   0.00000000   0.00000000        -11.79      0.00      0.00
   0.00000000  -0.00008017   0.00000000          0.00    -11.79      0.00
   0.00000000   0.00000000   0.00003406          0.00      0.00      5.01


     BFGS Geometry Optimization

     number of scf cycles    =   1
     number of bfgs steps    =   0

     energy   new            =     -99.5881067652 Ry

     new trust radius        =       0.0049980651 bohr
     new conv_thr            =       0.0000010000 Ry


ATOMIC_POSITIONS (crystal)
Al       0.000000000   0.000000000  -0.000093887
Al       0.500000000   0.500000000  -0.000093887
Al       0.500000000   0.000000000   0.071452471
Al       0.000000000   0.500000000   0.071452471
Al       0.000000000   0.000000000   0.142833452
Al       0.500000000   0.500000000   0.142833452
Al       0.500000000   0.000000000   0.214379393
Al       0.000000000   0.500000000   0.214379393



     Writing output data file Al_100_2_5.save
     NEW-OLD atomic charge density approx. for the potential

     negative rho (up, down):  7.286E-06 0.000E+00

     total cpu time spent up to now is     1190.9 secs

     per-process dynamical memory:   502.8 Mb

     Self-consistent Calculation

     iteration #  1     ecut=    80.00 Ry     beta=0.30
     Davidson diagonalization with overlap
     ethr =  1.00E-06,  avg # of iterations =  2.0

     Threshold (ethr) on eigenvalues was too large:
     Diagonalizing with lowered threshold

     Davidson diagonalization with overlap
     ethr =  7.58E-08,  avg # of iterations =  2.6

     negative rho (up, down):  8.584E-06 0.000E+00

     total cpu time spent up to now is     3491.9 secs

     total energy              =     -99.58821041 Ry
     Harris-Foulkes estimate   =     -99.58821199 Ry
     estimated scf accuracy    <       0.00002472 Ry

     iteration #  2     ecut=    80.00 Ry     beta=0.30
     Davidson diagonalization with overlap
     ethr =  1.03E-07,  avg # of iterations =  1.0

     negative rho (up, down):  1.991E-05 0.000E+00

     total cpu time spent up to now is     3546.0 secs

     total energy              =     -99.58820549 Ry
     Harris-Foulkes estimate   =     -99.58821058 Ry
     estimated scf accuracy    <       0.00001667 Ry

     iteration #  3     ecut=    80.00 Ry     beta=0.30
     Davidson diagonalization with overlap
     ethr =  6.95E-08,  avg # of iterations =  2.0

     negative rho (up, down):  1.512E-05 0.000E+00

     total cpu time spent up to now is     3613.1 secs

     total energy              =     -99.58820784 Ry
     Harris-Foulkes estimate   =     -99.58820925 Ry
     estimated scf accuracy    <       0.00000527 Ry

     iteration #  4     ecut=    80.00 Ry     beta=0.30
     Davidson diagonalization with overlap
     ethr =  2.20E-08,  avg # of iterations =  2.0

     negative rho (up, down):  7.674E-06 0.000E+00

     total cpu time spent up to now is     3674.3 secs

     End of self-consistent calculation

          k = 0.0000 0.0000 0.0000 ( 37267 PWs)   bands (ev):

   -11.5011 -10.0998  -7.9211  -5.0538  -3.2535  -3.2535  -2.7299  -1.9599
    -1.9599  -1.8775  -1.8774  -0.4348  -0.4346   0.0758   0.0758   0.7433

          k = 0.0000 0.0625 0.0000 ( 37205 PWs)   bands (ev):

   -11.4654 -10.0643  -7.8861  -5.0191  -3.8170  -3.2207  -2.6967  -2.5063
    -1.9271  -1.8172  -1.2663  -0.4780  -0.3406   0.1085   0.1426   0.7758

          k = 0.0000 0.1250 0.0000 ( 37193 PWs)   bands (ev):

   -11.3584  -9.9581  -7.7811  -4.9149  -4.7150  -3.3797  -3.1223  -2.5972
    -1.8287  -1.7127  -1.2977  -0.4163  -0.0428   0.2064   0.8723   1.1506

          k = 0.0000 0.1875 0.0000 ( 37198 PWs)   bands (ev):

   -11.1802  -9.7813  -7.6062  -5.6099  -4.7416  -4.2607  -2.9583  -2.4315
    -2.1595  -1.6649  -1.5441  -0.1711   0.3697   0.5769   1.0294   1.0720

          k = 0.0000 0.2500 0.0000 ( 37192 PWs)   bands (ev):

   -10.9310  -9.5340  -7.3617  -6.4580  -5.0990  -4.4995  -2.9836  -2.7286
    -2.1998  -1.4354  -1.3172  -0.1791   0.0670   0.5982   1.2357   1.4747

          k = 0.0000 0.3125 0.0000 ( 37174 PWs)   bands (ev):

   -10.6113  -9.2168  -7.2481  -7.0481  -5.8813  -4.1893  -3.7544  -2.4332
    -1.9024  -1.1458  -1.1404  -0.7841   0.3458   0.7194   0.8919   1.2936

          k = 0.0000 0.3750 0.0000 ( 37172 PWs)   bands (ev):

   -10.2214  -8.8300  -7.9756  -6.6657  -6.6024  -4.4655  -3.8117  -2.0721
    -1.6714  -1.5400  -0.7797  -0.5785   0.0296   0.4290   0.9068   1.2509

          k = 0.0000 0.4375 0.0000 ( 37222 PWs)   bands (ev):

    -9.7621  -8.6381  -8.3742  -7.2593  -6.2153  -5.1140  -3.3681  -2.2912
    -1.6453  -1.1138  -0.5944  -0.3535  -0.1605  -0.0859   0.6955   0.8478

          k = 0.0000-0.5000 0.0000 ( 37186 PWs)   bands (ev):

    -9.2340  -9.2340  -7.8504  -7.8504  -5.6977  -5.6977  -2.8601  -2.8601
    -1.1528  -1.1528  -0.6263  -0.6263   0.1382   0.1382   0.3229   0.3229

          k = 0.0625 0.0625 0.0000 ( 37181 PWs)   bands (ev):

   -11.4298 -10.0289  -7.8511  -4.9844  -3.7842  -3.7842  -2.6636  -2.4642
    -2.4641  -1.2064  -1.2064  -0.4081  -0.4081   0.1909   0.1910   0.8076

          k = 0.0625 0.1250 0.0000 ( 37200 PWs)   bands (ev):

   -11.3227  -9.9227  -7.7461  -4.8803  -4.6814  -3.6902  -3.3345  -2.5641
    -2.3623  -1.2605  -1.0979  -0.3094  -0.1617   0.3228   0.9009   1.2249

          k = 0.0625 0.1875 0.0000 ( 37177 PWs)   bands (ev):

   -11.1445  -9.7459  -7.5712  -5.5758  -4.7070  -4.2292  -3.5104  -2.3985
    -2.2075  -2.1124  -0.9325  -0.1596   0.4051   0.6746   1.0404   1.1124

          k = 0.0625 0.2500 0.0000 ( 37203 PWs)   bands (ev):

   -10.8954  -9.4987  -7.3268  -6.4236  -5.0653  -4.4651  -3.2796  -2.9505
    -2.1669  -1.9614  -0.7268  -0.1886   0.1802   0.6462   0.8888   1.3729

          k = 0.0625 0.3125 0.0000 ( 37175 PWs)   bands (ev):

   -10.5758  -9.1816  -7.2134  -7.0133  -5.8471  -4.1551  -3.7206  -2.9811
    -1.8699  -1.6640  -0.9654  -0.3324   0.1861   0.4155   0.8827   1.3570

          k = 0.0625 0.3750 0.0000 ( 37193 PWs)   bands (ev):

   -10.1860  -8.7949  -7.9408  -6.6310  -6.5679  -4.4315  -3.7778  -2.6181
    -1.6208  -1.5084  -1.3013  -0.4959   0.0062   0.5544   0.7674   0.8169

          k = 0.0625 0.4375 0.0000 ( 37206 PWs)   bands (ev):

    -9.7268  -8.6031  -8.3393  -7.2246  -6.1808  -5.0798  -3.3348  -2.3008
    -2.1330  -1.1194  -1.0847  -0.8776  -0.0278   0.1967   0.4263   1.1881

          k = 0.0625-0.5000 0.0000 ( 37210 PWs)   bands (ev):

    -9.1989  -9.1989  -7.8155  -7.8155  -5.6633  -5.6633  -2.8287  -2.8287
    -1.6784  -1.6784  -0.6255  -0.6255  -0.3326  -0.3326   0.9028   0.9028

          k = 0.1250 0.1250 0.0000 ( 37179 PWs)   bands (ev):

   -11.2158  -9.8166  -7.6412  -4.7763  -4.5811  -4.5811  -3.2371  -3.2370
    -2.4648  -1.1624  -1.1624  -0.0286  -0.0285   0.9729   1.3348   1.3348

          k = 0.1250 0.1875 0.0000 ( 37156 PWs)   bands (ev):

   -11.0377  -9.6399  -7.4665  -5.4738  -4.6034  -4.4238  -4.1068  -3.0700
    -2.2996  -2.0245  -1.0040   0.1247   0.7975   0.8037   1.1196   1.3060

          k = 0.1250 0.2500 0.0000 ( 37165 PWs)   bands (ev):

   -10.7888  -9.3929  -7.2223  -6.3206  -4.9662  -4.3619  -4.1661  -2.8753
    -2.8080  -2.0687  -0.8037  -0.0410   0.0734   0.4395   1.4052   1.4525

          k = 0.1250 0.3125 0.0000 ( 37207 PWs)   bands (ev):

   -10.4694  -9.0760  -7.1096  -6.9090  -5.7449  -4.0525  -3.8661  -3.6197
    -2.5323  -1.7731  -0.9032  -0.6672  -0.3575   0.6596   0.7042   1.2651

          k = 0.1250 0.3750 0.0000 ( 37189 PWs)   bands (ev):

   -10.0799  -8.6896  -7.8364  -6.5270  -6.4646  -4.3296  -3.6764  -3.4977
    -2.1659  -1.5283  -1.4153  -1.3557  -0.0561  -0.0245   0.6611   1.0570

          k = 0.1250 0.4375 0.0000 ( 37163 PWs)   bands (ev):

    -9.6211  -8.4982  -8.2344  -7.1207  -6.0772  -4.9772  -3.2362  -3.0659
    -2.1455  -1.9823  -1.7350  -1.0207  -0.6196   0.0680   0.3594   1.3844

          k = 0.1250-0.5000 0.0000 ( 37170 PWs)   bands (ev):

    -9.0935  -9.0935  -7.7111  -7.7111  -5.5602  -5.5602  -2.7608  -2.7608
    -2.5170  -2.5170  -1.2474  -1.2474  -0.4678  -0.4678   0.8438   0.8438

          k = 0.1875 0.1875 0.0000 ( 37147 PWs)   bands (ev):

   -10.8599  -9.4635  -7.2920  -5.3047  -5.3046  -4.4309  -3.9484  -3.9484
    -2.1350  -1.8615  -1.8615   0.0243   0.8752   0.8752   1.3603   1.3843

          k = 0.1875 0.2500 0.0000 ( 37175 PWs)   bands (ev):

   -10.6113  -9.2168  -7.0482  -6.1491  -5.0798  -4.7717  -4.1903  -3.7132
    -2.6818  -1.9057  -1.6374  -0.7745   0.1271   0.5572   1.0811   1.5934

          k = 0.1875 0.3125 0.0000 ( 37186 PWs)   bands (ev):

   -10.2922  -8.9003  -6.9369  -6.7353  -5.5767  -4.7496  -3.8823  -3.4627
    -3.3970  -1.6143  -1.5266  -1.3754  -0.5725  -0.1893   1.1490   1.7012

          k = 0.1875 0.3750 0.0000 ( 37171 PWs)   bands (ev):

    -9.9033  -8.5144  -7.6625  -6.3539  -6.2929  -4.3800  -4.1601  -3.5092
    -3.0385  -2.2198  -1.4307  -1.2859  -0.8493  -0.8404   0.7643   1.1583

          k = 0.1875 0.4375 0.0000 ( 37190 PWs)   bands (ev):

    -9.4449  -8.3235  -8.0597  -6.9477  -5.9047  -4.8064  -3.9419  -3.0958
    -2.8267  -2.6031  -1.9950  -1.5504  -0.7916  -0.4770   0.2106   0.5540

          k = 0.1875-0.5000 0.0000 ( 37202 PWs)   bands (ev):

    -8.9180  -8.9180  -7.5371  -7.5371  -5.3885  -5.3885  -3.4409  -3.4409
    -2.5490  -2.5490  -2.1039  -2.1039  -0.3216  -0.3216   0.0040   0.0040

          k = 0.2500 0.2500 0.0000 ( 37217 PWs)   bands (ev):

   -10.3631  -8.9706  -6.8048  -5.9104  -5.9103  -4.5468  -4.5468  -3.9510
    -2.4512  -2.4512  -1.6807  -1.5860  -0.2470   0.3383   0.3383   1.6408

          k = 0.2500 0.3125 0.0000 ( 37224 PWs)   bands (ev):

   -10.0446  -8.6546  -6.6955  -6.4925  -5.6162  -5.3121  -4.2425  -3.6461
    -3.2157  -2.3435  -2.1598  -1.4188  -0.9697  -0.3808   0.5778   1.0394

          k = 0.2500 0.3750 0.0000 ( 37195 PWs)   bands (ev):

    -9.6563  -8.2694  -7.4196  -6.1119  -6.0551  -5.2156  -3.9277  -3.8648
    -3.2979  -3.0194  -1.8332  -1.7392  -1.0239  -0.9877   0.3716   0.6962

          k = 0.2500 0.4375 0.0000 ( 37231 PWs)   bands (ev):

    -9.1987  -8.0793  -7.8156  -6.7062  -5.6637  -4.7763  -4.5679  -3.6988
    -3.4304  -2.8206  -2.3590  -1.8331  -1.2195  -0.5841  -0.2438   0.3720

          k = 0.2500-0.5000 0.0000 ( 37208 PWs)   bands (ev):

    -8.6728  -8.6728  -7.2941  -7.2941  -5.1486  -5.1486  -4.2687  -4.2687
    -2.9262  -2.9262  -2.3323  -2.3323  -0.7909  -0.7909  -0.1171  -0.1171

          k = 0.3125 0.3125 0.0000 ( 37223 PWs)   bands (ev):

    -9.7268  -8.3394  -6.3868  -6.3867  -6.1811  -5.0185  -5.0185  -3.3655
    -3.0844  -2.9167  -2.9166  -1.8030  -1.0532  -0.1109  -0.1109   0.3099

          k = 0.3125 0.3750 0.0000 ( 37249 PWs)   bands (ev):

    -9.3393  -7.9551  -7.1081  -6.0226  -5.8015  -5.7211  -4.6448  -3.8293
    -3.6195  -2.9570  -2.5573  -2.4884  -0.7719  -0.7158  -0.3697   0.1909

          k = 0.3125 0.4375 0.0000 ( 37234 PWs)   bands (ev):

    -8.8828  -7.7660  -7.5025  -6.3984  -5.5526  -5.3545  -4.4673  -4.2634
    -4.2017  -3.1228  -2.5358  -2.1644  -1.3518  -0.9825  -0.3148   0.3694

          k = 0.3125-0.5000 0.0000 ( 37220 PWs)   bands (ev):

    -8.3581  -8.3581  -6.9826  -6.9826  -5.0437  -5.0437  -4.8409  -4.8409
    -3.6953  -3.6953  -2.1033  -2.1033  -1.4771  -1.4771   0.1086   0.1086

          k = 0.3750 0.3750 0.0000 ( 37286 PWs)   bands (ev):

    -8.9529  -7.5721  -6.7292  -6.7292  -5.4232  -5.3580  -5.3580  -4.5338
    -3.2518  -3.2518  -3.1887  -2.6038  -1.0468  -0.4370  -0.4370  -0.3807

          k = 0.3750 0.4375 0.0000 ( 37232 PWs)   bands (ev):

    -8.4977  -7.3843  -7.1211  -6.2950  -5.9952  -5.1781  -4.9778  -4.9150
    -3.8900  -3.8285  -2.8243  -2.2389  -1.6069  -1.0354  -0.0697  -0.0233

          k = 0.3750-0.5000 0.0000 ( 37250 PWs)   bands (ev):

    -7.9744  -7.9744  -6.6051  -6.6051  -5.7559  -5.7559  -4.4665  -4.4665
    -4.4042  -4.4042  -2.3644  -2.3644  -1.5502  -1.5502   0.1725   0.1725

          k = 0.4375 0.4375 0.0000 ( 37288 PWs)   bands (ev):

    -8.0440  -6.9354  -6.9354  -6.6741  -5.8239  -5.5627  -5.5626  -4.5345
    -4.4718  -3.4538  -3.4538  -2.4313  -1.6165  -0.6341  -0.6341   0.1067

          k = 0.4375-0.5000 0.0000 ( 37302 PWs)   bands (ev):

    -7.5227  -7.5227  -6.4317  -6.4317  -6.1327  -6.1327  -5.0507  -5.0507
    -4.0256  -4.0256  -2.9583  -2.9583  -1.1679  -1.1679  -0.2007  -0.2007

          k =-0.5000-0.5000 0.0000 ( 37264 PWs)   bands (ev):

    -7.0043  -7.0043  -7.0043  -7.0043  -5.6310  -5.6310  -5.6309  -5.6309
    -3.5213  -3.5213  -3.5213  -3.5213  -0.7001  -0.7001  -0.7001  -0.7001

     the Fermi energy is    -0.7600 ev

!    total energy              =     -99.58820799 Ry
     Harris-Foulkes estimate   =     -99.58820885 Ry
     estimated scf accuracy    <       0.00000098 Ry

     The total energy is the sum of the following terms:

     one-electron contribution =    -542.15225954 Ry
     hartree contribution      =     275.34974527 Ry
     xc contribution           =     -79.84749475 Ry
     ewald contribution        =     247.06159395 Ry
     smearing contrib. (-TS)   =       0.00020708 Ry

     convergence has been achieved in   4 iterations

     Forces acting on atoms (Ry/au):


     negative rho (up, down):  7.674E-06 0.000E+00
     atom    1 type  1   force =     0.00000000    0.00000000   -0.00469398
     atom    2 type  1   force =     0.00000000    0.00000000   -0.00469401
     atom    3 type  1   force =     0.00000000    0.00000000    0.00081905
     atom    4 type  1   force =     0.00000000    0.00000000    0.00081905
     atom    5 type  1   force =     0.00000000    0.00000000   -0.00080606
     atom    6 type  1   force =     0.00000000    0.00000000   -0.00080604
     atom    7 type  1   force =     0.00000000    0.00000000    0.00468100
     atom    8 type  1   force =     0.00000000    0.00000000    0.00468100

     Total force =     0.009515     Total SCF correction =     0.001499
     SCF correction compared to forces is large: reduce conv_thr to get better values


     entering subroutine stress ...


     negative rho (up, down):  7.674E-06 0.000E+00
          total   stress  (Ry/bohr**3)                   (kbar)     P=   -6.34
  -0.00008068   0.00000000   0.00000000        -11.87      0.00      0.00
   0.00000000  -0.00008068   0.00000000          0.00    -11.87      0.00
   0.00000000   0.00000000   0.00003213          0.00      0.00      4.73


     number of scf cycles    =   2
     number of bfgs steps    =   1

     energy   old            =     -99.5881067652 Ry
     energy   new            =     -99.5882079937 Ry

     CASE: energy  _new < energy  _old


     WARNING: bfgs curvature condition failed, Theta= 0.869
     new trust radius        =       0.0074970977 bohr
     new conv_thr            =       0.0000000101 Ry


ATOMIC_POSITIONS (crystal)
Al       0.000000000   0.000000000  -0.000234717
Al       0.500000000   0.500000000  -0.000234717
Al       0.500000000   0.000000000   0.071480265
Al       0.000000000   0.500000000   0.071480265
Al       0.000000000   0.000000000   0.142806025
Al       0.500000000   0.500000000   0.142806027
Al       0.500000000   0.000000000   0.214519855
Al       0.000000000   0.500000000   0.214519855



     Writing output data file Al_100_2_5.save
     NEW-OLD atomic charge density approx. for the potential

     negative rho (up, down):  7.094E-06 0.000E+00

     total cpu time spent up to now is     3705.1 secs

     per-process dynamical memory:   502.8 Mb

     Self-consistent Calculation

     iteration #  1     ecut=    80.00 Ry     beta=0.30
     Davidson diagonalization with overlap
     ethr =  1.00E-06,  avg # of iterations =  2.2

     negative rho (up, down):  3.062E-06 0.000E+00

     total cpu time spent up to now is     3784.7 secs

     total energy              =     -99.58834437 Ry
     Harris-Foulkes estimate   =     -99.58834660 Ry
     estimated scf accuracy    <       0.00004605 Ry

     iteration #  2     ecut=    80.00 Ry     beta=0.30
     Davidson diagonalization with overlap
     ethr =  1.92E-07,  avg # of iterations =  1.2

     negative rho (up, down):  1.903E-07 0.000E+00

     total cpu time spent up to now is     3837.6 secs

     total energy              =     -99.58834058 Ry
     Harris-Foulkes estimate   =     -99.58834564 Ry
     estimated scf accuracy    <       0.00002653 Ry

     iteration #  3     ecut=    80.00 Ry     beta=0.30
     Davidson diagonalization with overlap
     ethr =  1.11E-07,  avg # of iterations =  2.0

     negative rho (up, down):  2.824E-07 0.000E+00

     total cpu time spent up to now is     3898.2 secs

     total energy              =     -99.58834383 Ry
     Harris-Foulkes estimate   =     -99.58834398 Ry
     estimated scf accuracy    <       0.00000145 Ry

     iteration #  4     ecut=    80.00 Ry     beta=0.30
     Davidson diagonalization with overlap
     ethr =  6.06E-09,  avg # of iterations =  1.9

     negative rho (up, down):  5.534E-07 0.000E+00

     total cpu time spent up to now is     3955.0 secs

     total energy              =     -99.58834380 Ry
     Harris-Foulkes estimate   =     -99.58834393 Ry
     estimated scf accuracy    <       0.00000052 Ry

     iteration #  5     ecut=    80.00 Ry     beta=0.30
     Davidson diagonalization with overlap
     ethr =  2.15E-09,  avg # of iterations =  2.5

     negative rho (up, down):  7.490E-07 0.000E+00

     total cpu time spent up to now is     4018.6 secs

     total energy              =     -99.58834386 Ry
     Harris-Foulkes estimate   =     -99.58834391 Ry
     estimated scf accuracy    <       0.00000065 Ry

     iteration #  6     ecut=    80.00 Ry     beta=0.30
     Davidson diagonalization with overlap
     ethr =  2.15E-09,  avg # of iterations =  1.0

     negative rho (up, down):  8.920E-07 0.000E+00

     total cpu time spent up to now is     4072.8 secs

     total energy              =     -99.58834388 Ry
     Harris-Foulkes estimate   =     -99.58834389 Ry
     estimated scf accuracy    <       0.00000077 Ry

     iteration #  7     ecut=    80.00 Ry     beta=0.30
     Davidson diagonalization with overlap
     ethr =  2.15E-09,  avg # of iterations =  1.0

     negative rho (up, down):  1.253E-06 0.000E+00

     total cpu time spent up to now is     4126.0 secs

     total energy              =     -99.58834370 Ry
     Harris-Foulkes estimate   =     -99.58834388 Ry
     estimated scf accuracy    <       0.00000080 Ry

     iteration #  8     ecut=    80.00 Ry     beta=0.30
     Davidson diagonalization with overlap
     ethr =  2.15E-09,  avg # of iterations =  2.0

     negative rho (up, down):  1.537E-06 0.000E+00

     total cpu time spent up to now is     4189.3 secs

     total energy              =     -99.58834379 Ry
     Harris-Foulkes estimate   =     -99.58834380 Ry
     estimated scf accuracy    <       0.00000007 Ry

     iteration #  9     ecut=    80.00 Ry     beta=0.30
     Davidson diagonalization with overlap
     ethr =  2.91E-10,  avg # of iterations =  1.0

     negative rho (up, down):  5.791E-06 0.000E+00

     total cpu time spent up to now is     4248.3 secs

     total energy              =     -99.58834379 Ry
     Harris-Foulkes estimate   =     -99.58834379 Ry
     estimated scf accuracy    <       0.00000003 Ry

     iteration # 10     ecut=    80.00 Ry     beta=0.30
     Davidson diagonalization with overlap
     ethr =  1.07E-10,  avg # of iterations =  2.1

     negative rho (up, down):  7.616E-06 0.000E+00

     total cpu time spent up to now is     4307.5 secs

     End of self-consistent calculation

          k = 0.0000 0.0000 0.0000 ( 37267 PWs)   bands (ev):

   -11.4970 -10.0910  -7.9246  -5.0596  -3.2490  -3.2490  -2.7361  -1.9495
    -1.9495  -1.8732  -1.8732  -0.4268  -0.4267   0.0721   0.0721   0.7337

          k = 0.0000 0.0625 0.0000 ( 37205 PWs)   bands (ev):

   -11.4613 -10.0556  -7.8896  -5.0249  -3.8126  -3.2162  -2.7029  -2.4966
    -1.9168  -1.8129  -1.2618  -0.4768  -0.3376   0.1047   0.1513   0.7661

          k = 0.0000 0.1250 0.0000 ( 37193 PWs)   bands (ev):

   -11.3542  -9.9494  -7.7845  -4.9207  -4.7106  -3.3704  -3.1178  -2.6034
    -1.8184  -1.7085  -1.3005  -0.4100  -0.0375   0.2027   0.8627   1.1570

          k = 0.0000 0.1875 0.0000 ( 37198 PWs)   bands (ev):

   -11.1760  -9.7725  -7.6096  -5.6056  -4.7474  -4.2515  -2.9537  -2.4376
    -2.1625  -1.6545  -1.5399  -0.1636   0.3659   0.5713   1.0201   1.0764

          k = 0.0000 0.2500 0.0000 ( 37192 PWs)   bands (ev):

   -10.9268  -9.5253  -7.3652  -6.4537  -5.0899  -4.5053  -2.9868  -2.7240
    -2.2058  -1.4250  -1.3129  -0.1848   0.0745   0.5944   1.2271   1.4793

          k = 0.0000 0.3125 0.0000 ( 37174 PWs)   bands (ev):

   -10.6071  -9.2080  -7.2438  -7.0515  -5.8723  -4.1950  -3.7576  -2.4287
    -1.9084  -1.1447  -1.1300  -0.7866   0.3526   0.7240   0.8881   1.2893

          k = 0.0000 0.3750 0.0000 ( 37172 PWs)   bands (ev):

   -10.2172  -8.8212  -7.9714  -6.6691  -6.5935  -4.4688  -3.8174  -2.0676
    -1.6763  -1.5460  -0.7693  -0.5751   0.0342   0.4270   0.9112   1.2471

          k = 0.0000 0.4375 0.0000 ( 37222 PWs)   bands (ev):

    -9.7579  -8.6339  -8.3655  -7.2505  -6.2187  -5.1173  -3.3737  -2.2965
    -1.6408  -1.1197  -0.5899  -0.3431  -0.1566  -0.0913   0.7060   0.8518

          k = 0.0000-0.5000 0.0000 ( 37186 PWs)   bands (ev):

    -9.2298  -9.2298  -7.8416  -7.8416  -5.7011  -5.7011  -2.8656  -2.8656
    -1.1482  -1.1482  -0.6320  -0.6320   0.1487   0.1487   0.3269   0.3269

          k = 0.0625 0.0625 0.0000 ( 37181 PWs)   bands (ev):

   -11.4256 -10.0202  -7.8546  -4.9902  -3.7798  -3.7797  -2.6697  -2.4544
    -2.4544  -1.2020  -1.2020  -0.4113  -0.4113   0.1990   0.1990   0.7980

          k = 0.0625 0.1250 0.0000 ( 37200 PWs)   bands (ev):

   -11.3185  -9.9140  -7.7495  -4.8861  -4.6770  -3.6857  -3.3252  -2.5702
    -2.3526  -1.2637  -1.0935  -0.3129  -0.1571   0.3306   0.8915   1.2332

          k = 0.0625 0.1875 0.0000 ( 37177 PWs)   bands (ev):

   -11.1404  -9.7372  -7.5747  -5.5715  -4.7128  -4.2201  -3.5060  -2.4046
    -2.1989  -2.1144  -0.9281  -0.1632   0.4131   0.6691   1.0319   1.1169

          k = 0.0625 0.2500 0.0000 ( 37203 PWs)   bands (ev):

   -10.8912  -9.4900  -7.3303  -6.4193  -5.0563  -4.4709  -3.2752  -2.9537
    -2.1730  -1.9517  -0.7226  -0.1937   0.1764   0.6541   0.8919   1.3651

          k = 0.0625 0.3125 0.0000 ( 37175 PWs)   bands (ev):

   -10.5716  -9.1728  -7.2092  -7.0167  -5.8382  -4.1608  -3.7239  -2.9766
    -1.8760  -1.6542  -0.9697  -0.3295   0.1906   0.4121   0.8882   1.3548

          k = 0.0625 0.3750 0.0000 ( 37193 PWs)   bands (ev):

   -10.1818  -8.7861  -7.9366  -6.6344  -6.5590  -4.4348  -3.7835  -2.6136
    -1.6261  -1.5143  -1.2916  -0.4914   0.0101   0.5497   0.7639   0.8270

          k = 0.0625 0.4375 0.0000 ( 37206 PWs)   bands (ev):

    -9.7226  -8.5989  -8.3305  -7.2158  -6.1841  -5.0831  -3.3404  -2.3031
    -2.1318  -1.1149  -1.0905  -0.8680  -0.0330   0.2067   0.4304   1.1847

          k = 0.0625-0.5000 0.0000 ( 37210 PWs)   bands (ev):

    -9.1947  -9.1947  -7.8067  -7.8067  -5.6667  -5.6667  -2.8342  -2.8342
    -1.6741  -1.6741  -0.6295  -0.6295  -0.3244  -0.3244   0.9069   0.9069

          k = 0.1250 0.1250 0.0000 ( 37179 PWs)   bands (ev):

   -11.2116  -9.8079  -7.6446  -4.7821  -4.5768  -4.5768  -3.2277  -3.2277
    -2.4709  -1.1656  -1.1656  -0.0242  -0.0242   0.9644   1.3433   1.3434

          k = 0.1250 0.1875 0.0000 ( 37156 PWs)   bands (ev):

   -11.0335  -9.6312  -7.4699  -5.4695  -4.6092  -4.4192  -4.0978  -3.0606
    -2.3056  -2.0278  -1.0072   0.1289   0.7923   0.8057   1.1240   1.2986

          k = 0.1250 0.2500 0.0000 ( 37165 PWs)   bands (ev):

   -10.7846  -9.3842  -7.2257  -6.3163  -4.9572  -4.3676  -4.1617  -2.8729
    -2.8042  -2.0747  -0.8071  -0.0450   0.0777   0.4424   1.4151   1.4428

          k = 0.1250 0.3125 0.0000 ( 37207 PWs)   bands (ev):

   -10.4652  -9.0673  -7.1054  -6.9124  -5.7359  -4.0582  -3.8617  -3.6229
    -2.5229  -1.7790  -0.9081  -0.6628  -0.3611   0.6694   0.7083   1.2613

          k = 0.1250 0.3750 0.0000 ( 37189 PWs)   bands (ev):

   -10.0757  -8.6808  -7.8321  -6.5304  -6.4557  -4.3329  -3.6821  -3.4933
    -2.1565  -1.5337  -1.4211  -1.3513  -0.0594  -0.0148   0.6561   1.0612

          k = 0.1250 0.4375 0.0000 ( 37163 PWs)   bands (ev):

    -9.6169  -8.4940  -8.2256  -7.1118  -6.0805  -4.9805  -3.2417  -3.0615
    -2.1511  -1.9781  -1.7256  -1.0251  -0.6114   0.0627   0.3561   1.3812

          k = 0.1250-0.5000 0.0000 ( 37170 PWs)   bands (ev):

    -9.0893  -9.0893  -7.7022  -7.7022  -5.5635  -5.5635  -2.7643  -2.7643
    -2.5147  -2.5147  -1.2383  -1.2383  -0.4729  -0.4729   0.8405   0.8405

          k = 0.1875 0.1875 0.0000 ( 37147 PWs)   bands (ev):

   -10.8557  -9.4548  -7.2954  -5.3003  -5.3003  -4.4367  -3.9392  -3.9392
    -2.1411  -1.8648  -1.8647   0.0287   0.8711   0.8711   1.3701   1.3877

          k = 0.1875 0.2500 0.0000 ( 37175 PWs)   bands (ev):

   -10.6071  -9.2081  -7.0516  -6.1449  -5.0752  -4.7628  -4.1960  -3.7040
    -2.6851  -1.9117  -1.6407  -0.7701   0.1220   0.5670   1.0767   1.5976

          k = 0.1875 0.3125 0.0000 ( 37186 PWs)   bands (ev):

   -10.2880  -8.8915  -6.9326  -6.7387  -5.5677  -4.7453  -3.8879  -3.4630
    -3.3907  -1.6201  -1.5222  -1.3789  -0.5777  -0.1797   1.1455   1.6962

          k = 0.1875 0.3750 0.0000 ( 37171 PWs)   bands (ev):

    -9.8991  -8.5056  -7.6583  -6.3573  -6.2840  -4.3757  -4.1633  -3.5148
    -3.0294  -2.2156  -1.4359  -1.2904  -0.8440  -0.8411   0.7599   1.1552

          k = 0.1875 0.4375 0.0000 ( 37190 PWs)   bands (ev):

    -9.4407  -8.3193  -8.0509  -6.9388  -5.9081  -4.8097  -3.9375  -3.0997
    -2.8241  -2.5939  -2.0005  -1.5416  -0.7967  -0.4803   0.2054   0.5508

          k = 0.1875-0.5000 0.0000 ( 37202 PWs)   bands (ev):

    -8.9138  -8.9138  -7.5283  -7.5283  -5.3918  -5.3918  -3.4365  -3.4365
    -2.5547  -2.5547  -2.0947  -2.0947  -0.3269  -0.3269   0.0008   0.0008

          k = 0.2500 0.2500 0.0000 ( 37217 PWs)   bands (ev):

   -10.3589  -8.9618  -6.8082  -5.9061  -5.9060  -4.5377  -4.5377  -3.9567
    -2.4545  -2.4545  -1.6865  -1.5817  -0.2375   0.3333   0.3333   1.6357

          k = 0.2500 0.3125 0.0000 ( 37224 PWs)   bands (ev):

   -10.0404  -8.6458  -6.6913  -6.4959  -5.6116  -5.3033  -4.2333  -3.6517
    -3.2190  -2.3393  -2.1632  -1.4233  -0.9616  -0.3860   0.5733   1.0363

          k = 0.2500 0.3750 0.0000 ( 37195 PWs)   bands (ev):

    -9.6521  -8.2606  -7.4154  -6.1153  -6.0462  -5.2113  -3.9295  -3.8571
    -3.3020  -3.0167  -1.8367  -1.7305  -1.0291  -0.9928   0.3685   0.6927

          k = 0.2500 0.4375 0.0000 ( 37231 PWs)   bands (ev):

    -9.1945  -8.0751  -7.8068  -6.6973  -5.6670  -4.7720  -4.5712  -3.6944
    -3.4213  -2.8264  -2.3499  -1.8384  -1.2231  -0.5895  -0.2469   0.3675

          k = 0.2500-0.5000 0.0000 ( 37208 PWs)   bands (ev):

    -8.6685  -8.6685  -7.2853  -7.2853  -5.1519  -5.1519  -4.2644  -4.2644
    -2.9171  -2.9171  -2.3379  -2.3379  -0.7941  -0.7941  -0.1223  -0.1223

          k = 0.3125 0.3125 0.0000 ( 37223 PWs)   bands (ev):

    -9.7226  -8.3306  -6.3825  -6.3825  -6.1845  -5.0095  -5.0095  -3.3696
    -3.0817  -2.9200  -2.9199  -1.7943  -1.0583  -0.1159  -0.1159   0.3068

          k = 0.3125 0.3750 0.0000 ( 37249 PWs)   bands (ev):

    -9.3351  -7.9463  -7.1039  -6.0180  -5.8049  -5.7124  -4.6357  -3.8249
    -3.6228  -2.9628  -2.5606  -2.4792  -0.7772  -0.7212  -0.3729   0.1865

          k = 0.3125 0.4375 0.0000 ( 37234 PWs)   bands (ev):

    -8.8786  -7.7618  -7.4937  -6.3896  -5.5482  -5.3578  -4.4629  -4.2661
    -4.1932  -3.1137  -2.5415  -2.1679  -1.3570  -0.9857  -0.3199   0.3659

          k = 0.3125-0.5000 0.0000 ( 37220 PWs)   bands (ev):

    -8.3538  -8.3538  -6.9738  -6.9738  -5.0394  -5.0394  -4.8442  -4.8442
    -3.6862  -3.6862  -2.1086  -2.1086  -1.4806  -1.4806   0.1042   0.1042

          k = 0.3750 0.3750 0.0000 ( 37286 PWs)   bands (ev):

    -8.9487  -7.5632  -6.7249  -6.7249  -5.4265  -5.3491  -5.3490  -4.5294
    -3.2551  -3.2551  -3.1796  -2.6095  -1.0500  -0.4420  -0.4420  -0.3859

          k = 0.3750 0.4375 0.0000 ( 37232 PWs)   bands (ev):

    -8.4935  -7.3800  -7.1123  -6.2905  -5.9866  -5.1738  -4.9811  -4.9060
    -3.8933  -3.8194  -2.8276  -2.2442  -1.6104  -1.0407  -0.0742  -0.0278

          k = 0.3750-0.5000 0.0000 ( 37250 PWs)   bands (ev):

    -7.9702  -7.9702  -6.5962  -6.5962  -5.7516  -5.7516  -4.4696  -4.4696
    -4.3954  -4.3954  -2.3679  -2.3679  -1.5554  -1.5554   0.1690   0.1690

          k = 0.4375 0.4375 0.0000 ( 37288 PWs)   bands (ev):

    -8.0398  -6.9312  -6.9312  -6.6652  -5.8196  -5.5537  -5.5537  -4.5377
    -4.4628  -3.4571  -3.4571  -2.4348  -1.6217  -0.6392  -0.6392   0.1032

          k = 0.4375-0.5000 0.0000 ( 37302 PWs)   bands (ev):

    -7.5185  -7.5185  -6.4271  -6.4271  -6.1241  -6.1241  -5.0417  -5.0417
    -4.0289  -4.0289  -2.9617  -2.9617  -1.1732  -1.1732  -0.2052  -0.2052

          k =-0.5000-0.5000 0.0000 ( 37264 PWs)   bands (ev):

    -7.0000  -7.0000  -7.0000  -7.0000  -5.6221  -5.6221  -5.6220  -5.6220
    -3.5246  -3.5246  -3.5245  -3.5245  -0.7051  -0.7051  -0.7051  -0.7051

     the Fermi energy is    -0.7607 ev

!    total energy              =     -99.58834377 Ry
     Harris-Foulkes estimate   =     -99.58834378 Ry
     estimated scf accuracy    <          9.3E-09 Ry

     The total energy is the sum of the following terms:

     one-electron contribution =    -541.72103768 Ry
     hartree contribution      =     275.14466521 Ry
     xc contribution           =     -79.84386388 Ry
     ewald contribution        =     246.83168101 Ry
     smearing contrib. (-TS)   =       0.00021158 Ry

     convergence has been achieved in  10 iterations

     Forces acting on atoms (Ry/au):


     negative rho (up, down):  7.616E-06 0.000E+00
     atom    1 type  1   force =     0.00000000    0.00000000   -0.00416204
     atom    2 type  1   force =     0.00000000    0.00000000   -0.00416204
     atom    3 type  1   force =     0.00000000    0.00000000    0.00019810
     atom    4 type  1   force =     0.00000000    0.00000000    0.00019810
     atom    5 type  1   force =     0.00000000    0.00000000   -0.00018946
     atom    6 type  1   force =     0.00000000    0.00000000   -0.00018948
     atom    7 type  1   force =     0.00000000    0.00000000    0.00415341
     atom    8 type  1   force =     0.00000000    0.00000000    0.00415341

     Total force =     0.008324     Total SCF correction =     0.000150


     entering subroutine stress ...


     negative rho (up, down):  7.616E-06 0.000E+00
          total   stress  (Ry/bohr**3)                   (kbar)     P=   -6.52
  -0.00008164   0.00000000   0.00000000        -12.01      0.00      0.00
   0.00000000  -0.00008164   0.00000000          0.00    -12.01      0.00
   0.00000000   0.00000000   0.00003038          0.00      0.00      4.47


     number of scf cycles    =   3
     number of bfgs steps    =   2

     energy   old            =     -99.5882079937 Ry
     energy   new            =     -99.5883437749 Ry

     CASE: energy  _new < energy  _old

     new trust radius        =       0.0112456465 bohr
     new conv_thr            =       0.0000000136 Ry


ATOMIC_POSITIONS (crystal)
Al       0.000000000   0.000000000  -0.000445962
Al       0.500000000   0.500000000  -0.000445962
Al       0.500000000   0.000000000   0.071506546
Al       0.000000000   0.500000000   0.071506546
Al       0.000000000   0.000000000   0.142780203
Al       0.500000000   0.500000000   0.142780205
Al       0.500000000   0.000000000   0.214730640
Al       0.000000000   0.500000000   0.214730640



     Writing output data file Al_100_2_5.save
     NEW-OLD atomic charge density approx. for the potential

     negative rho (up, down):  6.913E-06 0.000E+00

     total cpu time spent up to now is     4335.6 secs

     per-process dynamical memory:   502.8 Mb

     Self-consistent Calculation

     iteration #  1     ecut=    80.00 Ry     beta=0.30
     Davidson diagonalization with overlap
     ethr =  1.00E-06,  avg # of iterations =  3.0

     negative rho (up, down):  6.889E-06 0.000E+00

     total cpu time spent up to now is     4421.9 secs

     total energy              =     -99.58851570 Ry
     Harris-Foulkes estimate   =     -99.58851831 Ry
     estimated scf accuracy    <       0.00002972 Ry

     iteration #  2     ecut=    80.00 Ry     beta=0.30
     Davidson diagonalization with overlap
     ethr =  1.24E-07,  avg # of iterations =  1.2

     negative rho (up, down):  9.145E-06 0.000E+00

     total cpu time spent up to now is     4476.7 secs

     total energy              =     -99.58850981 Ry
     Harris-Foulkes estimate   =     -99.58851666 Ry
     estimated scf accuracy    <       0.00001915 Ry

     iteration #  3     ecut=    80.00 Ry     beta=0.30
     Davidson diagonalization with overlap
     ethr =  7.98E-08,  avg # of iterations =  2.0

     negative rho (up, down):  8.886E-06 0.000E+00

     total cpu time spent up to now is     4544.2 secs

     total energy              =     -99.58851367 Ry
     Harris-Foulkes estimate   =     -99.58851423 Ry
     estimated scf accuracy    <       0.00000315 Ry

     iteration #  4     ecut=    80.00 Ry     beta=0.30
     Davidson diagonalization with overlap
     ethr =  1.31E-08,  avg # of iterations =  1.7

     negative rho (up, down):  8.711E-06 0.000E+00

     total cpu time spent up to now is     4599.4 secs

     total energy              =     -99.58851379 Ry
     Harris-Foulkes estimate   =     -99.58851387 Ry
     estimated scf accuracy    <       0.00000071 Ry

     iteration #  5     ecut=    80.00 Ry     beta=0.30
     Davidson diagonalization with overlap
     ethr =  2.95E-09,  avg # of iterations =  1.9

     negative rho (up, down):  8.698E-06 0.000E+00

     total cpu time spent up to now is     4656.6 secs

     total energy              =     -99.58851381 Ry
     Harris-Foulkes estimate   =     -99.58851384 Ry
     estimated scf accuracy    <       0.00000010 Ry

     iteration #  6     ecut=    80.00 Ry     beta=0.30
     Davidson diagonalization with overlap
     ethr =  4.15E-10,  avg # of iterations =  2.9

     negative rho (up, down):  8.766E-06 0.000E+00

     total cpu time spent up to now is     4725.0 secs

     total energy              =     -99.58851385 Ry
     Harris-Foulkes estimate   =     -99.58851385 Ry
     estimated scf accuracy    <       0.00000013 Ry

     iteration #  7     ecut=    80.00 Ry     beta=0.30
     Davidson diagonalization with overlap
     ethr =  4.15E-10,  avg # of iterations =  1.0

     negative rho (up, down):  9.121E-06 0.000E+00

     total cpu time spent up to now is     4781.6 secs

     total energy              =     -99.58851384 Ry
     Harris-Foulkes estimate   =     -99.58851385 Ry
     estimated scf accuracy    <       0.00000014 Ry

     iteration #  8     ecut=    80.00 Ry     beta=0.30
     Davidson diagonalization with overlap
     ethr =  4.15E-10,  avg # of iterations =  1.0

     negative rho (up, down):  9.124E-06 0.000E+00

     total cpu time spent up to now is     4842.0 secs

     total energy              =     -99.58851384 Ry
     Harris-Foulkes estimate   =     -99.58851384 Ry
     estimated scf accuracy    <       0.00000005 Ry

     iteration #  9     ecut=    80.00 Ry     beta=0.30
     Davidson diagonalization with overlap
     ethr =  2.25E-10,  avg # of iterations =  1.0

     negative rho (up, down):  9.026E-06 0.000E+00

     total cpu time spent up to now is     4899.3 secs

     total energy              =     -99.58851385 Ry
     Harris-Foulkes estimate   =     -99.58851384 Ry
     estimated scf accuracy    <       0.00000005 Ry

     iteration # 10     ecut=    80.00 Ry     beta=0.30
     Davidson diagonalization with overlap
     ethr =  2.19E-10,  avg # of iterations =  1.0

     negative rho (up, down):  8.368E-06 0.000E+00

     total cpu time spent up to now is     4954.0 secs

     total energy              =     -99.58851384 Ry
     Harris-Foulkes estimate   =     -99.58851385 Ry
     estimated scf accuracy    <       0.00000006 Ry

     iteration # 11     ecut=    80.00 Ry     beta=0.30
     Davidson diagonalization with overlap
     ethr =  2.19E-10,  avg # of iterations =  1.0

     negative rho (up, down):  8.355E-06 0.000E+00

     total cpu time spent up to now is     5008.7 secs

     total energy              =     -99.58851384 Ry
     Harris-Foulkes estimate   =     -99.58851385 Ry
     estimated scf accuracy    <       0.00000009 Ry

     iteration # 12     ecut=    80.00 Ry     beta=0.30
     Davidson diagonalization with overlap
     ethr =  2.19E-10,  avg # of iterations =  1.0

     negative rho (up, down):  8.442E-06 0.000E+00

     total cpu time spent up to now is     5064.1 secs

     total energy              =     -99.58851384 Ry
     Harris-Foulkes estimate   =     -99.58851384 Ry
     estimated scf accuracy    <       0.00000003 Ry

     iteration # 13     ecut=    80.00 Ry     beta=0.30
     Davidson diagonalization with overlap
     ethr =  1.19E-10,  avg # of iterations =  1.0

     negative rho (up, down):  7.528E-06 0.000E+00

     total cpu time spent up to now is     5114.4 secs

     End of self-consistent calculation

          k = 0.0000 0.0000 0.0000 ( 37267 PWs)   bands (ev):

   -11.4852 -10.0743  -7.9254  -5.0650  -3.2367  -3.2367  -2.7420  -1.9307
    -1.9307  -1.8613  -1.8613  -0.4110  -0.4109   0.0712   0.0712   0.7219

          k = 0.0000 0.0625 0.0000 ( 37205 PWs)   bands (ev):

   -11.4495 -10.0389  -7.8904  -5.0302  -3.8005  -3.2039  -2.7088  -2.4786
    -1.8979  -1.8009  -1.2495  -0.4715  -0.3283   0.1038   0.1679   0.7544

          k = 0.0000 0.1250 0.0000 ( 37193 PWs)   bands (ev):

   -11.3424  -9.9327  -7.7853  -4.9261  -4.6986  -3.3527  -3.1055  -2.6093
    -1.7995  -1.6966  -1.3003  -0.3960  -0.0247   0.2017   0.8512   1.1697

          k = 0.0000 0.1875 0.0000 ( 37198 PWs)   bands (ev):

   -11.1642  -9.7558  -7.6104  -5.5937  -4.7527  -4.2341  -2.9415  -2.4435
    -2.1627  -1.6356  -1.5280  -0.1486   0.3650   0.5663   1.0089   1.0884

          k = 0.0000 0.2500 0.0000 ( 37192 PWs)   bands (ev):

   -10.9150  -9.5086  -7.3659  -6.4418  -5.0727  -4.5106  -2.9871  -2.7117
    -2.2116  -1.4061  -1.3010  -0.1901   0.0894   0.5934   1.2170   1.4918

          k = 0.0000 0.3125 0.0000 ( 37174 PWs)   bands (ev):

   -10.5953  -9.1913  -7.2319  -7.0522  -5.8553  -4.2003  -3.7580  -2.4164
    -1.9142  -1.1387  -1.1110  -0.7861   0.3666   0.7364   0.8871   1.2862

          k = 0.0000 0.3750 0.0000 ( 37172 PWs)   bands (ev):

   -10.2054  -8.8044  -7.9595  -6.6698  -6.5765  -4.4693  -3.8226  -2.0553
    -1.6802  -1.5516  -0.7503  -0.5646   0.0466   0.4270   0.9220   1.2460

          k = 0.0000 0.4375 0.0000 ( 37222 PWs)   bands (ev):

    -9.7461  -8.6221  -8.3486  -7.2336  -6.2194  -5.1179  -3.3788  -2.3012
    -1.6284  -1.1252  -0.5775  -0.3241  -0.1454  -0.0961   0.7252   0.8630

          k = 0.0000-0.5000 0.0000 ( 37186 PWs)   bands (ev):

    -9.2180  -9.2180  -7.8247  -7.8247  -5.7017  -5.7017  -2.8706  -2.8706
    -1.1358  -1.1358  -0.6373  -0.6373   0.1678   0.1678   0.3384   0.3384

          k = 0.0625 0.0625 0.0000 ( 37181 PWs)   bands (ev):

   -11.4138 -10.0035  -7.8554  -4.9955  -3.7676  -3.7676  -2.6756  -2.4363
    -2.4363  -1.1899  -1.1898  -0.4115  -0.4115   0.2147   0.2148   0.7863

          k = 0.0625 0.1250 0.0000 ( 37200 PWs)   bands (ev):

   -11.3068  -9.8973  -7.7503  -4.8914  -4.6650  -3.6734  -3.3077  -2.5761
    -2.3344  -1.2639  -1.0815  -0.3135  -0.1446   0.3461   0.8802   1.2493

          k = 0.0625 0.1875 0.0000 ( 37177 PWs)   bands (ev):

   -11.1286  -9.7205  -7.5755  -5.5596  -4.7181  -4.2027  -3.4938  -2.4104
    -2.1831  -2.1124  -0.9160  -0.1641   0.4290   0.6642   1.0220   1.1290

          k = 0.0625 0.2500 0.0000 ( 37203 PWs)   bands (ev):

   -10.8795  -9.4733  -7.3310  -6.4074  -5.0391  -4.4761  -3.2630  -2.9540
    -2.1788  -1.9337  -0.7110  -0.1978   0.1751   0.6698   0.9013   1.3568

          k = 0.0625 0.3125 0.0000 ( 37175 PWs)   bands (ev):

   -10.5598  -9.1561  -7.1973  -7.0174  -5.8211  -4.1660  -3.7243  -2.9644
    -1.8817  -1.6361  -0.9726  -0.3199   0.2027   0.4114   0.8997   1.3552

          k = 0.0625 0.3750 0.0000 ( 37193 PWs)   bands (ev):

   -10.1701  -8.7693  -7.9247  -6.6351  -6.5420  -4.4353  -3.7887  -2.6014
    -1.6307  -1.5199  -1.2735  -0.4792   0.0213   0.5459   0.7633   0.8455

          k = 0.0625 0.4375 0.0000 ( 37206 PWs)   bands (ev):

    -9.7108  -8.5871  -8.3137  -7.1989  -6.1848  -5.0837  -3.3455  -2.3030
    -2.1246  -1.1028  -1.0959  -0.8502  -0.0375   0.2251   0.4419   1.1841

          k = 0.0625-0.5000 0.0000 ( 37210 PWs)   bands (ev):

    -9.1829  -9.1829  -7.7899  -7.7899  -5.6673  -5.6673  -2.8390  -2.8390
    -1.6621  -1.6621  -0.6325  -0.6325  -0.3084  -0.3084   0.9185   0.9185

          k = 0.1250 0.1250 0.0000 ( 37179 PWs)   bands (ev):

   -11.1998  -9.7912  -7.6454  -4.7874  -4.5647  -4.5647  -3.2101  -3.2100
    -2.4768  -1.1660  -1.1660  -0.0121  -0.0121   0.9545   1.3597   1.3598

          k = 0.1250 0.1875 0.0000 ( 37156 PWs)   bands (ev):

   -11.0218  -9.6145  -7.4707  -5.4575  -4.6145  -4.4069  -4.0807  -3.0429
    -2.3115  -2.0283  -1.0077   0.1406   0.7877   0.8134   1.1362   1.2913

          k = 0.1250 0.2500 0.0000 ( 37165 PWs)   bands (ev):

   -10.7728  -9.3675  -7.2265  -6.3044  -4.9400  -4.3729  -4.1496  -2.8672
    -2.7928  -2.0805  -0.8078  -0.0473   0.0897   0.4519   1.4311   1.4335

          k = 0.1250 0.3125 0.0000 ( 37207 PWs)   bands (ev):

   -10.4534  -9.0505  -7.0935  -6.9131  -5.7188  -4.0634  -3.8497  -3.6233
    -2.5054  -1.7847  -0.9120  -0.6507  -0.3623   0.6876   0.7198   1.2585

          k = 0.1250 0.3750 0.0000 ( 37189 PWs)   bands (ev):

   -10.0639  -8.6641  -7.8203  -6.5311  -6.4387  -4.3334  -3.6872  -3.4812
    -2.1389  -1.5386  -1.4266  -1.3393  -0.0600   0.0032   0.6519   1.0730

          k = 0.1250 0.4375 0.0000 ( 37163 PWs)   bands (ev):

    -9.6051  -8.4822  -8.2088  -7.0949  -6.0812  -4.9810  -3.2466  -3.0493
    -2.1561  -1.9662  -1.7080  -1.0286  -0.5953   0.0580   0.3556   1.3807

          k = 0.1250-0.5000 0.0000 ( 37170 PWs)   bands (ev):

    -9.0775  -9.0775  -7.6854  -7.6854  -5.5641  -5.5641  -2.7661  -2.7661
    -2.5059  -2.5059  -1.2213  -1.2213  -0.4773  -0.4773   0.8401   0.8401

          k = 0.1875 0.1875 0.0000 ( 37147 PWs)   bands (ev):

   -10.8439  -9.4380  -7.2962  -5.2884  -5.2883  -4.4420  -3.9218  -3.9218
    -2.1469  -1.8653  -1.8652   0.0406   0.8685   0.8685   1.3884   1.3980

          k = 0.1875 0.2500 0.0000 ( 37175 PWs)   bands (ev):

   -10.5953  -9.1913  -7.0523  -6.1329  -5.0629  -4.7459  -4.2012  -3.6865
    -2.6857  -1.9174  -1.6412  -0.7580   0.1178   0.5850   1.0732   1.6092

          k = 0.1875 0.3125 0.0000 ( 37186 PWs)   bands (ev):

   -10.2762  -8.8747  -6.9207  -6.7394  -5.5506  -4.7332  -3.8931  -3.4605
    -3.3763  -1.6257  -1.5102  -1.3797  -0.5820  -0.1619   1.1434   1.6920

          k = 0.1875 0.3750 0.0000 ( 37171 PWs)   bands (ev):

    -9.8873  -8.4888  -7.6465  -6.3580  -6.2670  -4.3636  -4.1638  -3.5197
    -3.0120  -2.2038  -1.4401  -1.2940  -0.8451  -0.8251   0.7564   1.1548

          k = 0.1875 0.4375 0.0000 ( 37190 PWs)   bands (ev):

    -9.4289  -8.3075  -8.0341  -6.9219  -5.9087  -4.8103  -3.9255  -3.1021
    -2.8149  -2.5765  -2.0056  -1.5249  -0.8010  -0.4807   0.2010   0.5505

          k = 0.1875-0.5000 0.0000 ( 37202 PWs)   bands (ev):

    -8.9020  -8.9020  -7.5114  -7.5114  -5.3924  -5.3924  -3.4243  -3.4243
    -2.5599  -2.5599  -2.0773  -2.0773  -0.3317  -0.3317   0.0004   0.0004

          k = 0.2500 0.2500 0.0000 ( 37217 PWs)   bands (ev):

   -10.3471  -8.9450  -6.8089  -5.8941  -5.8941  -4.5205  -4.5204  -3.9618
    -2.4551  -2.4550  -1.6921  -1.5697  -0.2197   0.3291   0.3291   1.6314

          k = 0.2500 0.3125 0.0000 ( 37224 PWs)   bands (ev):

   -10.0286  -8.6290  -6.6794  -6.4966  -5.5993  -5.2866  -4.2160  -3.6566
    -3.2196  -2.3275  -2.1637  -1.4270  -0.9456  -0.3906   0.5698   1.0361

          k = 0.2500 0.3750 0.0000 ( 37195 PWs)   bands (ev):

    -9.6403  -8.2438  -7.4035  -6.1160  -6.0292  -5.1993  -3.9286  -3.8412
    -3.3046  -3.0073  -1.8376  -1.7140  -1.0334  -0.9970   0.3682   0.6905

          k = 0.2500 0.4375 0.0000 ( 37231 PWs)   bands (ev):

    -9.1827  -8.0632  -7.7900  -6.6803  -5.6676  -4.7600  -4.5717  -3.6823
    -3.4041  -2.8316  -2.3326  -1.8427  -1.2241  -0.5943  -0.2472   0.3639

          k = 0.2500-0.5000 0.0000 ( 37208 PWs)   bands (ev):

    -8.6567  -8.6567  -7.2684  -7.2684  -5.1525  -5.1525  -4.2523  -4.2523
    -2.8997  -2.8997  -2.3430  -2.3430  -0.7945  -0.7945  -0.1268  -0.1268

          k = 0.3125 0.3125 0.0000 ( 37223 PWs)   bands (ev):

    -9.7108  -8.3138  -6.3705  -6.3705  -6.1851  -4.9924  -4.9923  -3.3722
    -3.0722  -2.9205  -2.9205  -1.7778  -1.0626  -0.1202  -0.1202   0.3065

          k = 0.3125 0.3750 0.0000 ( 37249 PWs)   bands (ev):

    -9.3233  -7.9295  -7.0920  -6.0058  -5.8055  -5.6957  -4.6185  -3.8128
    -3.6234  -2.9681  -2.5612  -2.4620  -0.7817  -0.7261  -0.3732   0.1830

          k = 0.3125 0.4375 0.0000 ( 37234 PWs)   bands (ev):

    -8.8668  -7.7499  -7.4768  -6.3726  -5.5363  -5.3584  -4.4509  -4.2662
    -4.1765  -3.0964  -2.5466  -2.1688  -1.3614  -0.9861  -0.3245   0.3637

          k = 0.3125-0.5000 0.0000 ( 37220 PWs)   bands (ev):

    -8.3420  -8.3420  -6.9569  -6.9569  -5.0274  -5.0274  -4.8448  -4.8448
    -3.6689  -3.6689  -2.1130  -2.1130  -1.4816  -1.4816   0.1006   0.1006

          k = 0.3750 0.3750 0.0000 ( 37286 PWs)   bands (ev):

    -8.9369  -7.5464  -6.7130  -6.7130  -5.4272  -5.3320  -5.3320  -4.5174
    -3.2557  -3.2556  -3.1623  -2.6146  -1.0504  -0.4463  -0.4463  -0.3905

          k = 0.3750 0.4375 0.0000 ( 37232 PWs)   bands (ev):

    -8.4817  -7.3682  -7.0954  -6.2782  -5.9699  -5.1619  -4.9817  -4.8889
    -3.8939  -3.8022  -2.8282  -2.2486  -1.6115  -1.0453  -0.0777  -0.0315

          k = 0.3750-0.5000 0.0000 ( 37250 PWs)   bands (ev):

    -7.9584  -7.9584  -6.5793  -6.5793  -5.7397  -5.7397  -4.4701  -4.4701
    -4.3783  -4.3783  -2.3689  -2.3689  -1.5598  -1.5598   0.1667   0.1667

          k = 0.4375 0.4375 0.0000 ( 37288 PWs)   bands (ev):

    -8.0279  -6.9193  -6.9193  -6.6483  -5.8077  -5.5367  -5.5366  -4.5383
    -4.4457  -3.4577  -3.4576  -2.4358  -1.6261  -0.6435  -0.6435   0.1009

          k = 0.4375-0.5000 0.0000 ( 37302 PWs)   bands (ev):

    -7.5066  -7.5066  -6.4149  -6.4149  -6.1075  -6.1075  -5.0246  -5.0246
    -4.0295  -4.0295  -2.9622  -2.9622  -1.1778  -1.1778  -0.2087  -0.2087

          k =-0.5000-0.5000 0.0000 ( 37264 PWs)   bands (ev):

    -6.9881  -6.9881  -6.9881  -6.9881  -5.6051  -5.6051  -5.6050  -5.6050
    -3.5251  -3.5251  -3.5251  -3.5251  -0.7094  -0.7094  -0.7094  -0.7094

     the Fermi energy is    -0.7577 ev

!    total energy              =     -99.58851383 Ry
     Harris-Foulkes estimate   =     -99.58851384 Ry
     estimated scf accuracy    <       0.00000001 Ry

     The total energy is the sum of the following terms:

     one-electron contribution =    -541.02712391 Ry
     hartree contribution      =     274.79864108 Ry
     xc contribution           =     -79.83799966 Ry
     ewald contribution        =     246.47774947 Ry
     smearing contrib. (-TS)   =       0.00021919 Ry

     convergence has been achieved in  13 iterations

     Forces acting on atoms (Ry/au):


     negative rho (up, down):  7.528E-06 0.000E+00
     atom    1 type  1   force =     0.00000000    0.00000000   -0.00346265
     atom    2 type  1   force =     0.00000000    0.00000000   -0.00346265
     atom    3 type  1   force =     0.00000000    0.00000000   -0.00058626
     atom    4 type  1   force =     0.00000000    0.00000000   -0.00058626
     atom    5 type  1   force =     0.00000000    0.00000000    0.00059134
     atom    6 type  1   force =     0.00000000    0.00000000    0.00059132
     atom    7 type  1   force =     0.00000000    0.00000000    0.00345758
     atom    8 type  1   force =     0.00000000    0.00000000    0.00345758

     Total force =     0.007020     Total SCF correction =     0.000163


     entering subroutine stress ...


     negative rho (up, down):  7.528E-06 0.000E+00
          total   stress  (Ry/bohr**3)                   (kbar)     P=   -6.81
  -0.00008296   0.00000000   0.00000000        -12.20      0.00      0.00
   0.00000000  -0.00008296   0.00000000          0.00    -12.20      0.00
   0.00000000   0.00000000   0.00002708          0.00      0.00      3.98


     number of scf cycles    =   4
     number of bfgs steps    =   3

     energy   old            =     -99.5883437749 Ry
     energy   new            =     -99.5885138299 Ry

     CASE: energy  _new < energy  _old

     new trust radius        =       0.0168684697 bohr
     new conv_thr            =       0.0000000170 Ry


ATOMIC_POSITIONS (crystal)
Al       0.000000000   0.000000000  -0.000762830
Al       0.500000000   0.500000000  -0.000762830
Al       0.500000000   0.000000000   0.071523643
Al       0.000000000   0.500000000   0.071523643
Al       0.000000000   0.000000000   0.142763728
Al       0.500000000   0.500000000   0.142763731
Al       0.500000000   0.000000000   0.215046886
Al       0.000000000   0.500000000   0.215046886



     Writing output data file Al_100_2_5.save
     NEW-OLD atomic charge density approx. for the potential

     negative rho (up, down):  6.909E-06 0.000E+00

     total cpu time spent up to now is     5142.1 secs

     per-process dynamical memory:   502.8 Mb

     Self-consistent Calculation

     iteration #  1     ecut=    80.00 Ry     beta=0.30
     Davidson diagonalization with overlap
     ethr =  1.00E-06,  avg # of iterations =  3.3

     negative rho (up, down):  5.792E-06 0.000E+00

     total cpu time spent up to now is     5243.2 secs

     total energy              =     -99.58871352 Ry
     Harris-Foulkes estimate   =     -99.58871785 Ry
     estimated scf accuracy    <       0.00004604 Ry

     iteration #  2     ecut=    80.00 Ry     beta=0.30
     Davidson diagonalization with overlap
     ethr =  1.92E-07,  avg # of iterations =  1.0

     negative rho (up, down):  5.057E-06 0.000E+00

     total cpu time spent up to now is     5300.5 secs

     total energy              =     -99.58870391 Ry
     Harris-Foulkes estimate   =     -99.58871475 Ry
     estimated scf accuracy    <       0.00002930 Ry

     iteration #  3     ecut=    80.00 Ry     beta=0.30
     Davidson diagonalization with overlap
     ethr =  1.22E-07,  avg # of iterations =  2.0

     negative rho (up, down):  5.224E-06 0.000E+00

     total cpu time spent up to now is     5368.2 secs

     total energy              =     -99.58870987 Ry
     Harris-Foulkes estimate   =     -99.58871065 Ry
     estimated scf accuracy    <       0.00000402 Ry

     iteration #  4     ecut=    80.00 Ry     beta=0.30
     Davidson diagonalization with overlap
     ethr =  1.68E-08,  avg # of iterations =  1.7

     negative rho (up, down):  5.142E-06 0.000E+00

     total cpu time spent up to now is     5424.5 secs

     total energy              =     -99.58871007 Ry
     Harris-Foulkes estimate   =     -99.58871014 Ry
     estimated scf accuracy    <       0.00000093 Ry

     iteration #  5     ecut=    80.00 Ry     beta=0.30
     Davidson diagonalization with overlap
     ethr =  3.89E-09,  avg # of iterations =  1.7

     negative rho (up, down):  5.234E-06 0.000E+00

     total cpu time spent up to now is     5482.5 secs

     total energy              =     -99.58871007 Ry
     Harris-Foulkes estimate   =     -99.58871012 Ry
     estimated scf accuracy    <       0.00000022 Ry

     iteration #  6     ecut=    80.00 Ry     beta=0.30
     Davidson diagonalization with overlap
     ethr =  9.25E-10,  avg # of iterations =  3.0

     negative rho (up, down):  5.579E-06 0.000E+00

     total cpu time spent up to now is     5549.4 secs

     total energy              =     -99.58871013 Ry
     Harris-Foulkes estimate   =     -99.58871013 Ry
     estimated scf accuracy    <       0.00000007 Ry

     iteration #  7     ecut=    80.00 Ry     beta=0.30
     Davidson diagonalization with overlap
     ethr =  2.83E-10,  avg # of iterations =  1.2

     negative rho (up, down):  6.437E-06 0.000E+00

     total cpu time spent up to now is     5606.4 secs

     total energy              =     -99.58871011 Ry
     Harris-Foulkes estimate   =     -99.58871013 Ry
     estimated scf accuracy    <       0.00000011 Ry

     iteration #  8     ecut=    80.00 Ry     beta=0.30
     Davidson diagonalization with overlap
     ethr =  2.83E-10,  avg # of iterations =  2.0

     negative rho (up, down):  7.392E-06 0.000E+00

     total cpu time spent up to now is     5661.2 secs

     End of self-consistent calculation

          k = 0.0000 0.0000 0.0000 ( 37267 PWs)   bands (ev):

   -11.4676 -10.0514  -7.9266  -5.0736  -3.2184  -3.2184  -2.7513  -1.9048
[...]

          k = 0.2500 0.4375 0.0000 ( 37231 PWs)   bands (ev):

    -9.0697  -7.9498  -7.6941  -6.5836  -5.6575  -4.6453  -4.5607  -3.5661
    -3.3057  -2.8791  -2.2341  -1.8768  -1.2241  -0.6382  -0.2355   0.3274

          k = 0.2500-0.5000 0.0000 ( 37208 PWs)   bands (ev):

    -8.5435  -8.5435  -7.1721  -7.1721  -5.1420  -5.1420  -4.1370  -4.1370
    -2.8011  -2.8011  -2.3881  -2.3881  -0.7843  -0.7843  -0.1686  -0.1686

          k = 0.3125 0.3125 0.0000 ( 37223 PWs)   bands (ev):

    -9.5979  -8.2182  -6.2562  -6.2561  -6.1755  -4.8953  -4.8952  -3.4040
    -2.9724  -2.9084  -2.9083  -1.6850  -1.1020  -0.1634  -0.1634   0.3186

          k = 0.3125 0.3750 0.0000 ( 37249 PWs)   bands (ev):

    -9.2103  -7.8337  -6.9781  -5.8903  -5.7956  -5.6000  -4.5211  -3.6967
    -3.6117  -3.0158  -2.5490  -2.3637  -0.8269  -0.7702  -0.3616   0.1440

          k = 0.3125 0.4375 0.0000 ( 37234 PWs)   bands (ev):

    -8.7537  -7.6364  -7.3807  -6.2752  -5.4228  -5.3482  -4.3357  -4.2553
    -4.0784  -2.9980  -2.5919  -2.1597  -1.4046  -0.9761  -0.3667   0.3330

          k = 0.3125-0.5000 0.0000 ( 37220 PWs)   bands (ev):

    -8.2287  -8.2287  -6.8603  -6.8603  -4.9130  -4.9130  -4.8342  -4.8342
    -3.5708  -3.5708  -2.1474  -2.1474  -1.4819  -1.4819   0.0635   0.0635

          k = 0.3750 0.3750 0.0000 ( 37286 PWs)   bands (ev):

    -8.8238  -7.4503  -6.5988  -6.5988  -5.4170  -5.2354  -5.2353  -4.4023
    -3.2437  -3.2437  -3.0640  -2.6600  -1.0405  -0.4898  -0.4898  -0.4328

          k = 0.3750 0.4375 0.0000 ( 37232 PWs)   bands (ev):

    -8.3684  -7.2544  -6.9990  -6.1630  -5.8746  -5.0475  -4.9713  -4.7919
    -3.8822  -3.7041  -2.8162  -2.2831  -1.6118  -1.0907  -0.1168  -0.0687

          k = 0.3750-0.5000 0.0000 ( 37250 PWs)   bands (ev):

    -7.8449  -7.8449  -6.4821  -6.4821  -5.6263  -5.6263  -4.4605  -4.4605
    -4.2794  -4.2794  -2.3600  -2.3600  -1.6030  -1.6030   0.1358   0.1358

          k = 0.4375 0.4375 0.0000 ( 37288 PWs)   bands (ev):

    -7.9145  -6.8052  -6.8052  -6.5511  -5.6943  -5.4403  -5.4403  -4.5290
    -4.3466  -3.4458  -3.4458  -2.4270  -1.6694  -0.6872  -0.6871   0.0700

          k = 0.4375-0.5000 0.0000 ( 37302 PWs)   bands (ev):

    -7.3929  -7.3929  -6.2997  -6.2997  -6.0122  -6.0122  -4.9279  -4.9279
    -4.0178  -4.0178  -2.9503  -2.9503  -1.2233  -1.2233  -0.2478  -0.2478

          k =-0.5000-0.5000 0.0000 ( 37264 PWs)   bands (ev):

    -6.8741  -6.8741  -6.8741  -6.8741  -5.5087  -5.5087  -5.5087  -5.5087
    -3.5133  -3.5133  -3.5133  -3.5133  -0.7531  -0.7531  -0.7531  -0.7531

     the Fermi energy is    -0.7355 ev

!    total energy              =     -99.58913180 Ry
     Harris-Foulkes estimate   =     -99.58913181 Ry
     estimated scf accuracy    <          2.2E-09 Ry

     The total energy is the sum of the following terms:

     one-electron contribution =    -534.63787004 Ry
     hartree contribution      =     271.62315444 Ry
     xc contribution           =     -79.78981277 Ry
     ewald contribution        =     243.21514847 Ry
     smearing contrib. (-TS)   =       0.00024810 Ry

     convergence has been achieved in  11 iterations

     Forces acting on atoms (Ry/au):


     negative rho (up, down):  6.951E-06 0.000E+00
     atom    1 type  1   force =     0.00000000    0.00000000    0.00063969
     atom    2 type  1   force =     0.00000000    0.00000000    0.00063968
     atom    3 type  1   force =     0.00000000    0.00000000   -0.00210947
     atom    4 type  1   force =     0.00000000    0.00000000   -0.00210947
     atom    5 type  1   force =     0.00000000    0.00000000    0.00209045
     atom    6 type  1   force =     0.00000000    0.00000000    0.00209042
     atom    7 type  1   force =     0.00000000    0.00000000   -0.00062065
     atom    8 type  1   force =     0.00000000    0.00000000   -0.00062065

     Total force =     0.004385     Total SCF correction =     0.000062


     entering subroutine stress ...


     negative rho (up, down):  6.951E-06 0.000E+00
          total   stress  (Ry/bohr**3)                   (kbar)     P=   -9.23
  -0.00009431   0.00000000   0.00000000        -13.87      0.00      0.00
   0.00000000  -0.00009431   0.00000000          0.00    -13.87      0.00
   0.00000000   0.00000000   0.00000034          0.00      0.00      0.05


     number of scf cycles    =   9
     number of bfgs steps    =   8

     energy   old            =     -99.5890527236 Ry
     energy   new            =     -99.5891318034 Ry

     CASE: energy  _new < energy  _old

     new trust radius        =       0.0128033575 bohr
     new conv_thr            =       0.0000000100 Ry


ATOMIC_POSITIONS (crystal)
Al       0.000000000   0.000000000  -0.002322165
Al       0.500000000   0.500000000  -0.002322163
Al       0.500000000   0.000000000   0.070910574
Al       0.000000000   0.500000000   0.070910574
Al       0.000000000   0.000000000   0.143375791
Al       0.500000000   0.500000000   0.143375796
Al       0.500000000   0.000000000   0.216607226
Al       0.000000000   0.500000000   0.216607226



     Writing output data file Al_100_2_5.save
     NEW-OLD atomic charge density approx. for the potential

     negative rho (up, down):  7.031E-06 0.000E+00

     total cpu time spent up to now is     8817.7 secs

     per-process dynamical memory:   502.8 Mb

     Self-consistent Calculation

     iteration #  1     ecut=    80.00 Ry     beta=0.30
     Davidson diagonalization with overlap
     ethr =  1.00E-06,  avg # of iterations =  3.5

     negative rho (up, down):  6.784E-06 0.000E+00

     total cpu time spent up to now is     8915.2 secs

     total energy              =     -99.58919135 Ry
     Harris-Foulkes estimate   =     -99.58919954 Ry
     estimated scf accuracy    <       0.00011526 Ry

     iteration #  2     ecut=    80.00 Ry     beta=0.30
     Davidson diagonalization with overlap
     ethr =  4.80E-07,  avg # of iterations =  1.0

     negative rho (up, down):  8.431E-06 0.000E+00

     total cpu time spent up to now is     8970.4 secs

     total energy              =     -99.58917206 Ry
     Harris-Foulkes estimate   =     -99.58919290 Ry
     estimated scf accuracy    <       0.00007122 Ry

     iteration #  3     ecut=    80.00 Ry     beta=0.30
     Davidson diagonalization with overlap
     ethr =  2.97E-07,  avg # of iterations =  2.4

     negative rho (up, down):  8.219E-06 0.000E+00

     total cpu time spent up to now is     9035.4 secs

     total energy              =     -99.58918447 Ry
     Harris-Foulkes estimate   =     -99.58918628 Ry
     estimated scf accuracy    <       0.00001059 Ry

     iteration #  4     ecut=    80.00 Ry     beta=0.30
     Davidson diagonalization with overlap
     ethr =  4.41E-08,  avg # of iterations =  1.5

     negative rho (up, down):  8.227E-06 0.000E+00

     total cpu time spent up to now is     9092.1 secs

     total energy              =     -99.58918494 Ry
     Harris-Foulkes estimate   =     -99.58918517 Ry
     estimated scf accuracy    <       0.00000156 Ry

     iteration #  5     ecut=    80.00 Ry     beta=0.30
     Davidson diagonalization with overlap
     ethr =  6.49E-09,  avg # of iterations =  2.9

     negative rho (up, down):  8.319E-06 0.000E+00

     total cpu time spent up to now is     9156.9 secs

     total energy              =     -99.58918515 Ry
     Harris-Foulkes estimate   =     -99.58918514 Ry
     estimated scf accuracy    <       0.00000002 Ry

     iteration #  6     ecut=    80.00 Ry     beta=0.30
     Davidson diagonalization with overlap
     ethr =  6.52E-11,  avg # of iterations =  3.5

     negative rho (up, down):  8.465E-06 0.000E+00

     total cpu time spent up to now is     9248.5 secs

     total energy              =     -99.58918518 Ry
     Harris-Foulkes estimate   =     -99.58918520 Ry
     estimated scf accuracy    <       0.00000047 Ry

     iteration #  7     ecut=    80.00 Ry     beta=0.30
     Davidson diagonalization with overlap
     ethr =  6.52E-11,  avg # of iterations =  1.9

     negative rho (up, down):  8.702E-06 0.000E+00

     total cpu time spent up to now is     9310.0 secs

     total energy              =     -99.58918513 Ry
     Harris-Foulkes estimate   =     -99.58918518 Ry
     estimated scf accuracy    <       0.00000032 Ry

     iteration #  8     ecut=    80.00 Ry     beta=0.30
     Davidson diagonalization with overlap
     ethr =  6.52E-11,  avg # of iterations =  3.0

     negative rho (up, down):  8.535E-06 0.000E+00

     total cpu time spent up to now is     9389.0 secs

     total energy              =     -99.58918516 Ry
     Harris-Foulkes estimate   =     -99.58918514 Ry
     estimated scf accuracy    <       0.00000001 Ry

     iteration #  9     ecut=    80.00 Ry     beta=0.30
     Davidson diagonalization with overlap
     ethr =  5.87E-11,  avg # of iterations =  1.0

     negative rho (up, down):  8.373E-06 0.000E+00

     total cpu time spent up to now is     9443.2 secs

     total energy              =     -99.58918516 Ry
     Harris-Foulkes estimate   =     -99.58918516 Ry
     estimated scf accuracy    <       0.00000002 Ry

     iteration # 10     ecut=    80.00 Ry     beta=0.30
     Davidson diagonalization with overlap
     ethr =  5.87E-11,  avg # of iterations =  1.0

     negative rho (up, down):  6.947E-06 0.000E+00

     total cpu time spent up to now is     9494.6 secs

     End of self-consistent calculation

          k = 0.0000 0.0000 0.0000 ( 37267 PWs)   bands (ev):

   -11.3570  -9.9880  -7.9099  -5.1182  -3.1020  -3.1020  -2.7963  -1.8340
    -1.8340  -1.7303  -1.7303  -0.3293  -0.3292   0.0969   0.0969   0.6041

          k = 0.0000 0.0625 0.0000 ( 37205 PWs)   bands (ev):

   -11.3213  -9.9526  -7.8749  -5.0834  -3.6676  -3.0691  -2.7630  -2.3827
    -1.8012  -1.6738  -1.1157  -0.4276  -0.2697   0.1296   0.2550   0.6369

          k = 0.0000 0.1250 0.0000 ( 37193 PWs)   bands (ev):

   -11.2142  -9.8463  -7.7697  -4.9791  -4.5671  -3.2601  -2.9706  -2.6633
    -1.7029  -1.5689  -1.2753  -0.2925   0.0816   0.2275   0.7350   1.2158

          k = 0.0000 0.1875 0.0000 ( 37198 PWs)   bands (ev):

   -11.0360  -9.6693  -7.5947  -5.4630  -4.8055  -4.1433  -2.8065  -2.4972
    -2.1407  -1.5389  -1.3993  -0.0643   0.3907   0.5197   0.8959   1.2163

          k = 0.0000 0.2500 0.0000 ( 37192 PWs)   bands (ev):

   -10.7868  -9.4220  -7.3500  -6.3118  -4.9830  -4.5630  -2.9666  -2.5767
    -2.2648  -1.3093  -1.1709  -0.2425   0.1716   0.6192   1.1129   1.6286

          k = 0.0000 0.3125 0.0000 ( 37174 PWs)   bands (ev):

   -10.4670  -9.1045  -7.1024  -7.0360  -5.7663  -4.2522  -3.7386  -2.2811
    -1.9667  -1.0945  -1.0141  -0.7541   0.4431   0.8731   0.9128   1.2471

          k = 0.0000 0.3750 0.0000 ( 37172 PWs)   bands (ev):

   -10.0770  -8.7175  -7.8304  -6.6533  -6.4882  -4.4507  -3.8738  -1.9198
    -1.7197  -1.6033  -0.6533  -0.4495   0.1830   0.4117   0.9724   1.2717

          k = 0.0000 0.4375 0.0000 ( 37222 PWs)   bands (ev):

    -9.6176  -8.4932  -8.2615  -7.1457  -6.2025  -5.1000  -3.4291  -2.3476
    -1.4928  -1.1756  -0.4413  -0.2269  -0.1407  -0.0234   0.8226   0.9855

          k = 0.0000-0.5000 0.0000 ( 37186 PWs)   bands (ev):

    -9.0894  -9.0894  -7.7372  -7.7372  -5.6844  -5.6844  -2.9195  -2.9195
    -0.9999  -0.9999  -0.6859  -0.6859   0.2651   0.2651   0.4629   0.4629

          k = 0.0625 0.0625 0.0000 ( 37181 PWs)   bands (ev):

   -11.2856  -9.9171  -7.8398  -5.0486  -3.6346  -3.6346  -2.7298  -2.3420
    -2.3420  -1.0587  -1.0587  -0.3856  -0.3856   0.2966   0.2967   0.6694

          k = 0.0625 0.1250 0.0000 ( 37200 PWs)   bands (ev):

   -11.1786  -9.8109  -7.7347  -4.9443  -4.5335  -3.5402  -3.2161  -2.6301
    -2.2404  -1.2410  -0.9508  -0.2894  -0.0112   0.4275   0.7656   1.3280

          k = 0.0625 0.1875 0.0000 ( 37177 PWs)   bands (ev):

   -11.0003  -9.6340  -7.5597  -5.4289  -4.7708  -4.1113  -3.3618  -2.4641
    -2.1154  -2.0652  -0.7847  -0.1415   0.5196   0.6141   0.9182   1.2547

          k = 0.0625 0.2500 0.0000 ( 37203 PWs)   bands (ev):

   -10.7512  -9.3867  -7.3151  -6.2774  -4.9492  -4.5285  -3.1302  -2.9332
    -2.2319  -1.8407  -0.5865  -0.2268   0.1811   0.7550   0.9812   1.2978

          k = 0.0625 0.3125 0.0000 ( 37175 PWs)   bands (ev):

   -10.4315  -9.0693  -7.0678  -7.0012  -5.7321  -4.2178  -3.7048  -2.8311
    -1.9341  -1.5428  -1.0039  -0.2091   0.3357   0.4324   0.9538   1.3427

          k = 0.0625 0.3750 0.0000 ( 37193 PWs)   bands (ev):

   -10.0417  -8.6824  -7.7956  -6.6186  -6.4536  -4.4167  -3.8397  -2.4675
    -1.6765  -1.5714  -1.1801  -0.3455   0.1448   0.5068   0.7855   0.9400

          k = 0.0625 0.4375 0.0000 ( 37206 PWs)   bands (ev):

    -9.5823  -8.4582  -8.2265  -7.1110  -6.1679  -5.0657  -3.3954  -2.3244
    -2.0181  -1.1457  -0.9697  -0.7584  -0.0821   0.3186   0.5683   1.2064

          k = 0.0625-0.5000 0.0000 ( 37210 PWs)   bands (ev):

    -9.0542  -9.0542  -7.7024  -7.7024  -5.6499  -5.6499  -2.8869  -2.8869
    -1.5305  -1.5305  -0.6703  -0.6703  -0.2256  -0.2256   1.0456   1.0456

          k = 0.1250 0.1250 0.0000 ( 37179 PWs)   bands (ev):

   -11.0716  -9.7047  -7.6297  -4.8402  -4.4329  -4.4329  -3.1186  -3.1186
    -2.5306  -1.1437  -1.1437   0.1210   0.1210   0.8511   1.4439   1.4439

          k = 0.1250 0.1875 0.0000 ( 37156 PWs)   bands (ev):

   -10.8935  -9.5280  -7.4548  -5.3268  -4.6670  -4.2750  -3.9907  -2.9511
    -2.3648  -2.0077  -0.9855   0.2707   0.7372   0.8680   1.2496   1.2675

          k = 0.1250 0.2500 0.0000 ( 37165 PWs)   bands (ev):

   -10.6446  -9.2808  -7.2104  -6.1743  -4.8493  -4.4250  -4.0191  -2.8345
    -2.7140  -2.1333  -0.7877  -0.0758   0.2205   0.5609   1.3140   1.5268

          k = 0.1250 0.3125 0.0000 ( 37207 PWs)   bands (ev):

   -10.3251  -8.9637  -6.9639  -6.8968  -5.6296  -4.1149  -3.7181  -3.6035
    -2.4145  -1.8367  -0.9442  -0.5183  -0.3550   0.7803   0.8447   1.2236

          k = 0.1250 0.3750 0.0000 ( 37189 PWs)   bands (ev):

    -9.9355  -8.5771  -7.6911  -6.5145  -6.3502  -4.3146  -3.7378  -3.3489
    -2.0476  -1.5854  -1.4770  -1.2077  -0.0414   0.0947   0.6083   1.2007

          k = 0.1250 0.4375 0.0000 ( 37163 PWs)   bands (ev):

    -9.4765  -8.3532  -8.1215  -7.0070  -6.0642  -4.9630  -3.2952  -2.9163
    -2.2064  -1.8364  -1.6167  -1.0682  -0.5139   0.0112   0.3757   1.3986

          k = 0.1250-0.5000 0.0000 ( 37170 PWs)   bands (ev):

    -8.9488  -8.9488  -7.5978  -7.5978  -5.5467  -5.5467  -2.7959  -2.7959
    -2.3944  -2.3944  -1.1334  -1.1334  -0.5223  -0.5223   0.8604   0.8604

          k = 0.1875 0.1875 0.0000 ( 37147 PWs)   bands (ev):

   -10.7156  -9.3514  -7.2802  -5.1573  -5.1573  -4.4942  -3.8318  -3.8318
    -2.1998  -1.8443  -1.8443   0.1708   0.8352   0.8352   1.2554   1.5132

          k = 0.1875 0.2500 0.0000 ( 37175 PWs)   bands (ev):

   -10.4670  -9.1046  -7.0362  -6.0027  -4.9316  -4.6570  -4.2529  -3.5960
    -2.6660  -1.9696  -1.6201  -0.6260   0.0711   0.6772   1.0302   1.4584

          k = 0.1875 0.3125 0.0000 ( 37186 PWs)   bands (ev):

   -10.1479  -8.7879  -6.7910  -6.7230  -5.4605  -4.6036  -3.9439  -3.4353
    -3.2920  -1.6763  -1.3792  -1.3614  -0.6289  -0.0711   1.1073   1.6349

          k = 0.1875 0.3750 0.0000 ( 37171 PWs)   bands (ev):

    -9.7588  -8.4017  -7.5172  -6.3413  -6.1782  -4.2328  -4.1448  -3.5688
    -2.9219  -2.0745  -1.4749  -1.3342  -0.8403  -0.7445   0.7156   1.1712

          k = 0.1875 0.4375 0.0000 ( 37190 PWs)   bands (ev):

    -9.3004  -8.1785  -7.9468  -6.8338  -5.8916  -4.7921  -3.7938  -3.1348
    -2.7017  -2.4860  -2.0540  -1.4388  -0.8459  -0.4635   0.1553   0.5698

          k = 0.1875-0.5000 0.0000 ( 37202 PWs)   bands (ev):

    -8.7733  -8.7733  -7.4238  -7.4238  -5.3749  -5.3749  -3.2917  -3.2917
    -2.6114  -2.6114  -1.9869  -1.9869  -0.3797  -0.3797   0.0195   0.0195

          k = 0.2500 0.2500 0.0000 ( 37217 PWs)   bands (ev):

   -10.2187  -8.8582  -6.7926  -5.7635  -5.7635  -4.4314  -4.4314  -4.0128
    -2.4348  -2.4348  -1.7429  -1.4388  -0.1291   0.2813   0.2813   1.5727

          k = 0.2500 0.3125 0.0000 ( 37224 PWs)   bands (ev):

    -9.9002  -8.5421  -6.5495  -6.4800  -5.4685  -5.1983  -4.1265  -3.7059
    -3.2003  -2.1985  -2.1433  -1.4675  -0.8653  -0.4405   0.5251   1.0519

          k = 0.2500 0.3750 0.0000 ( 37195 PWs)   bands (ev):

    -9.5117  -8.1566  -7.2741  -6.0991  -5.9395  -5.0701  -3.9078  -3.7537
    -3.3389  -2.8931  -1.8201  -1.6287  -1.0816  -1.0419   0.3872   0.6535

          k = 0.2500 0.4375 0.0000 ( 37231 PWs)   bands (ev):

    -9.0541  -7.9342  -7.7025  -6.5919  -5.6504  -4.6295  -4.5534  -3.5499
    -3.3143  -2.8837  -2.2426  -1.8782  -1.2203  -0.6429  -0.2287   0.3221

          k = 0.2500-0.5000 0.0000 ( 37208 PWs)   bands (ev):

    -8.5279  -8.5279  -7.1805  -7.1805  -5.1348  -5.1348  -4.1210  -4.1210
    -2.8097  -2.8097  -2.3920  -2.3920  -0.7779  -0.7779  -0.1734  -0.1734

          k = 0.3125 0.3125 0.0000 ( 37223 PWs)   bands (ev):

    -9.5823  -8.2266  -6.2403  -6.2403  -6.1683  -4.9039  -4.9039  -3.4071
    -2.9577  -2.9007  -2.9007  -1.6927  -1.1075  -0.1691  -0.1691   0.3253

          k = 0.3125 0.3750 0.0000 ( 37249 PWs)   bands (ev):

    -9.1947  -7.8421  -6.9623  -5.8752  -5.7884  -5.6079  -4.5298  -3.6805
    -3.6042  -3.0204  -2.5412  -2.3722  -0.8325  -0.7749  -0.3548   0.1379

          k = 0.3125 0.4375 0.0000 ( 37234 PWs)   bands (ev):

    -8.7380  -7.6207  -7.3891  -6.2833  -5.4073  -5.3409  -4.3198  -4.2480
    -4.0870  -3.0066  -2.5959  -2.1519  -1.4100  -0.9698  -0.3714   0.3263

          k = 0.3125-0.5000 0.0000 ( 37220 PWs)   bands (ev):

    -8.2130  -8.2130  -6.8687  -6.8687  -4.8972  -4.8972  -4.8269  -4.8269
    -3.5794  -3.5794  -2.1487  -2.1487  -1.4782  -1.4782   0.0581   0.0581

          k = 0.3750 0.3750 0.0000 ( 37286 PWs)   bands (ev):

    -8.8082  -7.4587  -6.5830  -6.5830  -5.4098  -5.2440  -5.2440  -4.3863
    -3.2361  -3.2361  -3.0726  -2.6640  -1.0342  -0.4956  -0.4956  -0.4376

          k = 0.3750 0.4375 0.0000 ( 37232 PWs)   bands (ev):

    -8.3528  -7.2387  -7.0074  -6.1478  -5.8825  -5.0318  -4.9640  -4.8006
    -3.8748  -3.7127  -2.8084  -2.2845  -1.6082  -1.0964  -0.1230  -0.0741

          k = 0.3750-0.5000 0.0000 ( 37250 PWs)   bands (ev):

    -7.8292  -7.8292  -6.4902  -6.4902  -5.6109  -5.6109  -4.4533  -4.4533
    -4.2879  -4.2879  -2.3523  -2.3523  -1.6085  -1.6085   0.1291   0.1291

          k = 0.4375 0.4375 0.0000 ( 37288 PWs)   bands (ev):

    -7.8988  -6.7893  -6.7893  -6.5593  -5.6789  -5.4489  -5.4489  -4.5219
    -4.3550  -3.4382  -3.4382  -2.4193  -1.6749  -0.6929  -0.6929   0.0632

          k = 0.4375-0.5000 0.0000 ( 37302 PWs)   bands (ev):

    -7.3772  -7.3772  -6.2845  -6.2845  -6.0201  -6.0201  -4.9365  -4.9365
    -4.0104  -4.0104  -2.9426  -2.9426  -1.2290  -1.2290  -0.2541  -0.2541

          k =-0.5000-0.5000 0.0000 ( 37264 PWs)   bands (ev):

    -6.8583  -6.8583  -6.8583  -6.8583  -5.5174  -5.5174  -5.5174  -5.5174
    -3.5057  -3.5057  -3.5057  -3.5057  -0.7589  -0.7589  -0.7589  -0.7589

     the Fermi energy is    -0.7342 ev

!    total energy              =     -99.58918515 Ry
     Harris-Foulkes estimate   =     -99.58918516 Ry
     estimated scf accuracy    <          5.9E-09 Ry

     The total energy is the sum of the following terms:

     one-electron contribution =    -533.91657545 Ry
     hartree contribution      =     271.26287176 Ry
     xc contribution           =     -79.78599070 Ry
     ewald contribution        =     242.85029251 Ry
     smearing contrib. (-TS)   =       0.00021672 Ry

     convergence has been achieved in  10 iterations

     Forces acting on atoms (Ry/au):


     negative rho (up, down):  6.947E-06 0.000E+00
     atom    1 type  1   force =     0.00000000    0.00000000    0.00040587
     atom    2 type  1   force =     0.00000000    0.00000000    0.00040587
     atom    3 type  1   force =     0.0000000