--------------------------------------------------------------------------
[[3889,1],0]: A high-performance Open MPI point-to-point messaging module
was unable to find any relevant network interfaces:

Module: OpenFabrics (openib)
  Host: ubuntu

Another transport will be used instead, although this may result in
lower performance.
--------------------------------------------------------------------------

     Program PWSCF v.5.1 starts on  4Jun2020 at 21:14:27 

     This program is part of the open-source Quantum ESPRESSO suite
     for quantum simulation of materials; please cite
         "P. Giannozzi et al., J. Phys.:Condens. Matter 21 395502 (2009);
          URL http://www.quantum-espresso.org", 
     in publications or presentations arising from this work. More details at
     http://www.quantum-espresso.org/quote

     Parallel version (MPI), running on     1 processors
     Reading input from Al_111_H4_hole_A_site_0.pw.in

     Current dimensions of program PWSCF are:
     Max number of different atomic species (ntypx) = 10
     Max number of k-points (npk) =  40000
     Max angular momentum in pseudopotentials (lmaxx) =  3
               file H.pbe-rrkjus.UPF: wavefunction(s)  1S renormalized

     Subspace diagonalization in iterative solution of the eigenvalue problem:
     a serial algorithm will be used


     G-vector sticks info
     --------------------
     sticks:   dense  smooth     PW     G-vecs:    dense   smooth      PW
     Sum         301     241     85                61593    44015    8065



     bravais-lattice index     =            4
     lattice parameter (alat)  =       5.3760  a.u.
     unit-cell volume          =    1977.5856 (a.u.)^3
     number of atoms/cell      =           10
     number of atomic types    =            2
     number of electrons       =        28.00
     number of Kohn-Sham states=           18
     kinetic-energy cutoff     =      30.0000  Ry
     charge density cutoff     =     150.0000  Ry
     convergence threshold     =      9.0E-06
     mixing beta               =       0.3000
     number of iterations used =            8  local-TF  mixing
     Exchange-correlation      =  SLA  PW   PBE  PBE ( 1  4  3  4 0)
     nstep                     =           50


     celldm(1)=   5.376000  celldm(2)=   0.000000  celldm(3)=  14.696938
     celldm(4)=   0.000000  celldm(5)=   0.000000  celldm(6)=   0.000000

     crystal axes: (cart. coord. in units of alat)
               a(1) = (   1.000000   0.000000   0.000000 )  
               a(2) = (  -0.500000   0.866025   0.000000 )  
               a(3) = (   0.000000   0.000000  14.696938 )  

     reciprocal axes: (cart. coord. in units 2 pi/alat)
               b(1) = (  1.000000  0.577350 -0.000000 )  
               b(2) = (  0.000000  1.154701  0.000000 )  
               b(3) = (  0.000000 -0.000000  0.068041 )  


     PseudoPot. # 1 for Al read from file:
     ./Al.pbe-n-van.UPF
     MD5 check sum: b11ded24487aef5bc42d5c7a2e22a7b6
     Pseudo is Ultrasoft + core correction, Zval =  3.0
     Generated by new atomic code, or converted to UPF format
     Using radial grid of  893 points,  2 beta functions with: 
                l(1) =   0
                l(2) =   1
     Q(r) pseudized with  8 coefficients,  rinner =    0.900   0.900   0.900


     PseudoPot. # 2 for H  read from file:
     ./H.pbe-rrkjus.UPF
     MD5 check sum: 0433647300470310da31d564c103eed6
     Pseudo is Ultrasoft, Zval =  1.0
     Generated by new atomic code, or converted to UPF format
     Using radial grid of 1061 points,  2 beta functions with: 
                l(1) =   0
                l(2) =   0
     Q(r) pseudized with 0 coefficients 


     atomic species   valence    mass     pseudopotential
        Al             3.00    26.98000     Al( 1.00)
        H              1.00     1.00790     H ( 1.00)

      6 Sym. Ops. (no inversion) found



   Cartesian axes

     site n.     atom                  positions (alat units)
         1           Al  tau(   1) = (   0.0000000   0.5773502   1.6329930  )
         2           Al  tau(   2) = (   0.4999999   0.2886751   0.8164965  )
         3           Al  tau(   3) = (   0.0000000   0.0000000   0.0000000  )
         4           Al  tau(   4) = (   0.0000000   0.5773502   4.0824827  )
         5           Al  tau(   5) = (   0.4999999   0.2886751   3.2659862  )
         6           Al  tau(   6) = (   0.0000000   0.0000000   2.4494897  )
         7           Al  tau(   7) = (   0.0000000   0.5773502   6.5319725  )
         8           Al  tau(   8) = (   0.4999999   0.2886751   5.7154760  )
         9           Al  tau(   9) = (   0.0000000   0.0000000   4.8989795  )
        10           H   tau(  10) = (   0.0000000   0.0000000   5.3072271  )

     number of k points=    30  Marzari-Vanderbilt smearing, width (Ry)=  0.0250
                       cart. coord. in units 2pi/alat
        k(    1) = (   0.0000000   0.0000000   0.0000000), wk =   0.0078125
        k(    2) = (   0.0000000   0.0721688   0.0000000), wk =   0.0468750
        k(    3) = (   0.0000000   0.1443376   0.0000000), wk =   0.0468750
        k(    4) = (   0.0000000   0.2165064   0.0000000), wk =   0.0468750
        k(    5) = (   0.0000000   0.2886751   0.0000000), wk =   0.0468750
        k(    6) = (   0.0000000   0.3608439   0.0000000), wk =   0.0468750
        k(    7) = (   0.0000000   0.4330127   0.0000000), wk =   0.0468750
        k(    8) = (   0.0000000   0.5051815   0.0000000), wk =   0.0468750
        k(    9) = (   0.0000000  -0.5773503   0.0000000), wk =   0.0234375
        k(   10) = (   0.0625000   0.1082532   0.0000000), wk =   0.0468750
        k(   11) = (   0.0625000   0.1804220   0.0000000), wk =   0.0937500
        k(   12) = (   0.0625000   0.2525907   0.0000000), wk =   0.0937500
        k(   13) = (   0.0625000   0.3247595   0.0000000), wk =   0.0937500
        k(   14) = (   0.0625000   0.3969283   0.0000000), wk =   0.0937500
        k(   15) = (   0.0625000   0.4690971   0.0000000), wk =   0.0937500
        k(   16) = (   0.0625000   0.5412659   0.0000000), wk =   0.0937500
        k(   17) = (   0.1250000   0.2165064   0.0000000), wk =   0.0468750
        k(   18) = (   0.1250000   0.2886751   0.0000000), wk =   0.0937500
        k(   19) = (   0.1250000   0.3608439   0.0000000), wk =   0.0937500
        k(   20) = (   0.1250000   0.4330127   0.0000000), wk =   0.0937500
        k(   21) = (   0.1250000   0.5051815   0.0000000), wk =   0.0937500
        k(   22) = (   0.1250000   0.5773503   0.0000000), wk =   0.0468750
        k(   23) = (   0.1875000   0.3247595   0.0000000), wk =   0.0468750
        k(   24) = (   0.1875000   0.3969283   0.0000000), wk =   0.0937500
        k(   25) = (   0.1875000   0.4690971   0.0000000), wk =   0.0937500
        k(   26) = (   0.1875000   0.5412659   0.0000000), wk =   0.0937500
        k(   27) = (   0.2500000   0.4330127   0.0000000), wk =   0.0468750
        k(   28) = (   0.2500000   0.5051815   0.0000000), wk =   0.0937500
        k(   29) = (   0.2500000   0.5773503   0.0000000), wk =   0.0468750
        k(   30) = (   0.3125000   0.5412659   0.0000000), wk =   0.0468750

     Dense  grid:    61593 G-vectors     FFT dimensions: (  24,  24, 320)

     Smooth grid:    44015 G-vectors     FFT dimensions: (  20,  20, 288)

     Largest allocated arrays     est. size (Mb)     dimensions
        Kohn-Sham Wavefunctions         1.52 Mb     (    5537,   18)
        NL pseudopotentials             3.21 Mb     (    5537,   38)
        Each V/rho on FFT grid          2.81 Mb     (  184320)
        Each G-vector array             0.47 Mb     (   61593)
        G-vector shells                 0.01 Mb     (    1885)
     Largest temporary arrays     est. size (Mb)     dimensions
        Auxiliary wavefunctions         6.08 Mb     (    5537,   72)
        Each subspace H/S matrix        0.08 Mb     (      72,   72)
        Each <psi_i|beta_j> matrix      0.01 Mb     (      38,   18)
        Arrays for rho mixing          22.50 Mb     (  184320,    8)

     Initial potential from superposition of free atoms

     starting charge   27.88161, renormalised to   28.00000

     negative rho (up, down):  6.227E-05 0.000E+00
     Starting wfc are   37 randomized atomic wfcs

     total cpu time spent up to now is        7.9 secs

     per-process dynamical memory:    89.2 Mb

     Self-consistent Calculation

     iteration #  1     ecut=    30.00 Ry     beta=0.30
     Davidson diagonalization with overlap
     ethr =  1.00E-02,  avg # of iterations =  4.5

     negative rho (up, down):  6.978E-08 0.000E+00

     total cpu time spent up to now is       23.1 secs

     total energy              =    -114.50857062 Ry
     Harris-Foulkes estimate   =    -117.07696762 Ry
     estimated scf accuracy    <     383.25450279 Ry

     iteration #  2     ecut=    30.00 Ry     beta=0.30
     Davidson diagonalization with overlap
     ethr =  1.00E-02,  avg # of iterations =  1.2

     negative rho (up, down):  1.503E-03 0.000E+00

     total cpu time spent up to now is       31.0 secs

     total energy              =    -110.76150807 Ry
     Harris-Foulkes estimate   =    -114.89554544 Ry
     estimated scf accuracy    <     191.92243830 Ry

     iteration #  3     ecut=    30.00 Ry     beta=0.30
     Davidson diagonalization with overlap
     ethr =  1.00E-02,  avg # of iterations =  5.7

     total cpu time spent up to now is       45.0 secs

     total energy              =    -112.95806856 Ry
     Harris-Foulkes estimate   =    -113.05444338 Ry
     estimated scf accuracy    <       1.76180055 Ry

     iteration #  4     ecut=    30.00 Ry     beta=0.30
     Davidson diagonalization with overlap
     ethr =  6.29E-03,  avg # of iterations =  1.7

     total cpu time spent up to now is       52.9 secs

     total energy              =    -113.03607490 Ry
     Harris-Foulkes estimate   =    -113.04099212 Ry
     estimated scf accuracy    <       0.17321882 Ry

     iteration #  5     ecut=    30.00 Ry     beta=0.30
     Davidson diagonalization with overlap
     ethr =  6.19E-04,  avg # of iterations =  5.0

     total cpu time spent up to now is       63.1 secs

     total energy              =    -113.04760729 Ry
     Harris-Foulkes estimate   =    -113.05825894 Ry
     estimated scf accuracy    <       0.20401936 Ry

     iteration #  6     ecut=    30.00 Ry     beta=0.30
     Davidson diagonalization with overlap
     ethr =  6.19E-04,  avg # of iterations =  1.2

     negative rho (up, down):  6.485E-04 0.000E+00

     total cpu time spent up to now is       70.7 secs

     total energy              =    -113.02990217 Ry
     Harris-Foulkes estimate   =    -113.05252877 Ry
     estimated scf accuracy    <       0.09111820 Ry

     iteration #  7     ecut=    30.00 Ry     beta=0.30
     Davidson diagonalization with overlap
     ethr =  3.25E-04,  avg # of iterations =  4.8

     negative rho (up, down):  1.150E-05 0.000E+00

     total cpu time spent up to now is       82.8 secs

     total energy              =    -113.07391531 Ry
     Harris-Foulkes estimate   =    -113.26358430 Ry
     estimated scf accuracy    <      15.01433055 Ry

     iteration #  8     ecut=    30.00 Ry     beta=0.30
     Davidson diagonalization with overlap
     ethr =  3.25E-04,  avg # of iterations =  3.2

     negative rho (up, down):  3.864E-05 0.000E+00

     total cpu time spent up to now is       94.8 secs

     total energy              =    -113.14702065 Ry
     Harris-Foulkes estimate   =    -113.11298395 Ry
     estimated scf accuracy    <       5.67978999 Ry

     iteration #  9     ecut=    30.00 Ry     beta=0.30
     Davidson diagonalization with overlap
     ethr =  3.25E-04,  avg # of iterations =  1.4

     negative rho (up, down):  1.101E-05 0.000E+00

     total cpu time spent up to now is      104.2 secs

     total energy              =    -113.09988149 Ry
     Harris-Foulkes estimate   =    -113.15059230 Ry
     estimated scf accuracy    <       8.52554953 Ry

     iteration # 10     ecut=    30.00 Ry     beta=0.30
     Davidson diagonalization with overlap
     ethr =  3.25E-04,  avg # of iterations =  1.3

     negative rho (up, down):  1.100E-03 0.000E+00

     total cpu time spent up to now is      113.0 secs

     total energy              =    -112.84639435 Ry
     Harris-Foulkes estimate   =    -113.10485756 Ry
     estimated scf accuracy    <       5.32499688 Ry

     iteration # 11     ecut=    30.00 Ry     beta=0.30
     Davidson diagonalization with overlap
     ethr =  3.25E-04,  avg # of iterations =  5.2

     negative rho (up, down):  5.630E-04 0.000E+00

     total cpu time spent up to now is      127.3 secs

     total energy              =    -113.05696408 Ry
     Harris-Foulkes estimate   =    -113.09457381 Ry
     estimated scf accuracy    <       3.64712839 Ry

     iteration # 12     ecut=    30.00 Ry     beta=0.30
     Davidson diagonalization with overlap
     ethr =  3.25E-04,  avg # of iterations =  1.5

     negative rho (up, down):  1.527E-04 0.000E+00

     total cpu time spent up to now is      135.8 secs

     total energy              =    -113.00584437 Ry
     Harris-Foulkes estimate   =    -113.06259486 Ry
     estimated scf accuracy    <       1.67003748 Ry

     iteration # 13     ecut=    30.00 Ry     beta=0.30
     Davidson diagonalization with overlap
     ethr =  3.25E-04,  avg # of iterations =  3.5

     negative rho (up, down):  1.136E-02 0.000E+00

     total cpu time spent up to now is      145.3 secs

     total energy              =    -113.04151038 Ry
     Harris-Foulkes estimate   =    -113.03726654 Ry
     estimated scf accuracy    <       0.13335408 Ry

     iteration # 14     ecut=    30.00 Ry     beta=0.30
     Davidson diagonalization with overlap
     ethr =  3.25E-04,  avg # of iterations =  3.4

     negative rho (up, down):  7.639E-03 0.000E+00

     total cpu time spent up to now is      154.6 secs

     total energy              =    -113.01999702 Ry
     Harris-Foulkes estimate   =    -113.06462388 Ry
     estimated scf accuracy    <       1.50573039 Ry

     iteration # 15     ecut=    30.00 Ry     beta=0.30
     Davidson diagonalization with overlap
     ethr =  3.25E-04,  avg # of iterations =  2.3

     negative rho (up, down):  2.710E-03 0.000E+00

     total cpu time spent up to now is      164.2 secs

     total energy              =    -113.03146981 Ry
     Harris-Foulkes estimate   =    -113.03651067 Ry
     estimated scf accuracy    <       0.09591689 Ry

     iteration # 16     ecut=    30.00 Ry     beta=0.30
     Davidson diagonalization with overlap
     ethr =  3.25E-04,  avg # of iterations =  1.2

     negative rho (up, down):  8.399E-03 0.000E+00

     total cpu time spent up to now is      172.9 secs

     total energy              =    -113.03366997 Ry
     Harris-Foulkes estimate   =    -113.03414174 Ry
     estimated scf accuracy    <       0.00692082 Ry

     iteration # 17     ecut=    30.00 Ry     beta=0.30
     Davidson diagonalization with overlap
     ethr =  2.47E-05,  avg # of iterations =  5.2

     negative rho (up, down):  1.271E-02 0.000E+00

     total cpu time spent up to now is      185.5 secs

     total energy              =    -113.02435927 Ry
     Harris-Foulkes estimate   =    -113.03771415 Ry
     estimated scf accuracy    <       0.19106214 Ry

     iteration # 18     ecut=    30.00 Ry     beta=0.30
     Davidson diagonalization with overlap
     ethr =  2.47E-05,  avg # of iterations =  3.9

     negative rho (up, down):  1.025E-02 0.000E+00

     total cpu time spent up to now is      196.7 secs

     total energy              =    -113.03327984 Ry
     Harris-Foulkes estimate   =    -113.03626267 Ry
     estimated scf accuracy    <       0.11501357 Ry

     iteration # 19     ecut=    30.00 Ry     beta=0.30
     Davidson diagonalization with overlap
     ethr =  2.47E-05,  avg # of iterations =  3.0

     negative rho (up, down):  1.133E-02 0.000E+00

     total cpu time spent up to now is      206.4 secs

     total energy              =    -113.03090656 Ry
     Harris-Foulkes estimate   =    -113.03378485 Ry
     estimated scf accuracy    <       0.04280661 Ry

     iteration # 20     ecut=    30.00 Ry     beta=0.30
     Davidson diagonalization with overlap
     ethr =  2.47E-05,  avg # of iterations =  3.7

     negative rho (up, down):  6.715E-03 0.000E+00

     total cpu time spent up to now is      216.4 secs

     total energy              =    -113.03190675 Ry
     Harris-Foulkes estimate   =    -113.03326732 Ry
     estimated scf accuracy    <       0.01181792 Ry

     iteration # 21     ecut=    30.00 Ry     beta=0.30
     Davidson diagonalization with overlap
     ethr =  2.47E-05,  avg # of iterations =  3.0

     negative rho (up, down):  5.867E-03 0.000E+00

     total cpu time spent up to now is      225.1 secs

     total energy              =    -113.03259517 Ry
     Harris-Foulkes estimate   =    -113.03288187 Ry
     estimated scf accuracy    <       0.01014179 Ry

     iteration # 22     ecut=    30.00 Ry     beta=0.30
     Davidson diagonalization with overlap
     ethr =  2.47E-05,  avg # of iterations =  1.9

     negative rho (up, down):  5.684E-03 0.000E+00

     total cpu time spent up to now is      233.8 secs

     total energy              =    -113.03210650 Ry
     Harris-Foulkes estimate   =    -113.03262696 Ry
     estimated scf accuracy    <       0.00573224 Ry

     iteration # 23     ecut=    30.00 Ry     beta=0.30
     Davidson diagonalization with overlap
     ethr =  2.05E-05,  avg # of iterations =  3.0

     negative rho (up, down):  4.286E-03 0.000E+00

     total cpu time spent up to now is      245.2 secs

     total energy              =    -113.03184862 Ry
     Harris-Foulkes estimate   =    -113.03284487 Ry
     estimated scf accuracy    <       0.01123525 Ry

     iteration # 24     ecut=    30.00 Ry     beta=0.30
     Davidson diagonalization with overlap
     ethr =  2.05E-05,  avg # of iterations =  2.9

     negative rho (up, down):  3.152E-03 0.000E+00

     total cpu time spent up to now is      256.8 secs

     total energy              =    -113.03232357 Ry
     Harris-Foulkes estimate   =    -113.03259153 Ry
     estimated scf accuracy    <       0.00463123 Ry

     iteration # 25     ecut=    30.00 Ry     beta=0.30
     Davidson diagonalization with overlap
     ethr =  1.65E-05,  avg # of iterations =  2.0

     negative rho (up, down):  1.779E-03 0.000E+00

     total cpu time spent up to now is      265.0 secs

     total energy              =    -113.03239103 Ry
     Harris-Foulkes estimate   =    -113.03242400 Ry
     estimated scf accuracy    <       0.00020655 Ry

     iteration # 26     ecut=    30.00 Ry     beta=0.30
     Davidson diagonalization with overlap
     ethr =  7.38E-07,  avg # of iterations =  4.6

     negative rho (up, down):  1.977E-03 0.000E+00

     total cpu time spent up to now is      275.1 secs

     total energy              =    -113.03239952 Ry
     Harris-Foulkes estimate   =    -113.03247331 Ry
     estimated scf accuracy    <       0.00146288 Ry

     iteration # 27     ecut=    30.00 Ry     beta=0.30
     Davidson diagonalization with overlap
     ethr =  7.38E-07,  avg # of iterations =  2.7

     negative rho (up, down):  1.421E-03 0.000E+00

     total cpu time spent up to now is      283.9 secs

     total energy              =    -113.03243955 Ry
     Harris-Foulkes estimate   =    -113.03243113 Ry
     estimated scf accuracy    <       0.00002595 Ry

     iteration # 28     ecut=    30.00 Ry     beta=0.30
     Davidson diagonalization with overlap
     ethr =  9.27E-08,  avg # of iterations =  3.0

     negative rho (up, down):  1.038E-03 0.000E+00

     total cpu time spent up to now is      293.2 secs

     total energy              =    -113.03244573 Ry
     Harris-Foulkes estimate   =    -113.03244077 Ry
     estimated scf accuracy    <       0.00001063 Ry

     iteration # 29     ecut=    30.00 Ry     beta=0.30
     Davidson diagonalization with overlap
     ethr =  3.80E-08,  avg # of iterations =  2.1

     negative rho (up, down):  2.311E-05 0.000E+00

     total cpu time spent up to now is      301.2 secs

     End of self-consistent calculation

          k = 0.0000 0.0000 0.0000 (  5537 PWs)   bands (ev):

   -10.8564  -8.9078  -8.4919  -7.8891  -7.4341  -6.7326  -5.6344  -4.3797
    -3.2733  -2.2898  -0.7163   0.9758   2.3123   3.5425   5.0608   5.4829
     5.6599   6.2161

          k = 0.0000 0.0722 0.0000 (  5524 PWs)   bands (ev):

   -10.7699  -8.8124  -8.3968  -7.7942  -7.3406  -6.6397  -5.5418  -4.2869
    -3.1816  -2.2026  -0.6302   1.0626   2.3934   3.6059   5.1405   5.5626
     5.7552   6.2803

          k = 0.0000 0.1443 0.0000 (  5500 PWs)   bands (ev):

   -10.5121  -8.5266  -8.1120  -7.5101  -7.0607  -6.3617  -5.2647  -4.0094
    -2.9080  -1.9433  -0.3763   1.3204   2.6288   3.7640   5.3367   5.7653
     6.0402   6.3803

          k = 0.0000 0.2165 0.0000 (  5496 PWs)   bands (ev):

   -10.0882  -8.0516  -7.6385  -7.0378  -6.5962  -5.9005  -4.8052  -3.5491
    -2.4560  -1.5189   0.0323   1.7337   2.9507   3.8025   5.1861   5.9623
     6.3810   6.4996

          k = 0.0000 0.2887 0.0000 (  5490 PWs)   bands (ev):

    -9.5090  -7.3891  -6.9785  -6.3793  -5.9505  -5.2600  -4.1677  -2.9106
    -1.8363  -0.9548   0.5323   2.1284   2.7742   3.6674   4.4133   4.7620
     5.1981   5.3390

          k = 0.0000 0.3608 0.0000 (  5482 PWs)   bands (ev):

    -8.7966  -6.5421  -6.1350  -5.5374  -5.1309  -4.4487  -3.3632  -2.1073
    -1.1033  -0.4112   0.7089   1.7350   2.2576   2.7497   3.2429   3.3613
     3.6723   4.2513

          k = 0.0000 0.4330 0.0000 (  5488 PWs)   bands (ev):

    -8.0018  -5.5143  -5.1126  -4.5160  -4.1605  -3.4949  -2.4457  -1.3365
    -0.9090  -0.0498   0.2984   0.6767   1.2002   1.4726   1.8762   2.5045
     2.8087   3.5287

          k = 0.0000 0.5052 0.0000 (  5504 PWs)   bands (ev):

    -7.2592  -4.3119  -3.9247  -3.3262  -3.2414  -2.5857  -1.9304  -1.3770
    -1.1262  -0.9765  -0.5307  -0.0887   0.4428   0.8411   1.4130   1.8586
     2.2983   3.0305

          k = 0.0000-0.5774 0.0000 (  5484 PWs)   bands (ev):

    -6.9096  -3.2996  -2.9387  -2.8995  -2.5885  -2.4603  -1.9936  -1.9224
    -1.6480  -1.3644  -1.0973  -0.5650   0.2891   0.6729   1.5313   1.6029
     2.3605   2.7898

          k = 0.0625 0.1083 0.0000 (  5511 PWs)   bands (ev):

   -10.5978  -8.6218  -8.2069  -7.6047  -7.1539  -6.4543  -5.3570  -4.1018
    -2.9989  -2.0293  -0.4603   1.2352   2.5523   3.7190   5.2836   5.7076
     5.9455   6.3726

          k = 0.0625 0.1804 0.0000 (  5519 PWs)   bands (ev):

   -10.2569  -8.2415  -7.8277  -7.2265  -6.7817  -6.0847  -4.9887  -3.7327
    -2.6358  -1.6870  -0.1279   1.5727   2.8431   3.8483   5.3723   5.9089
     6.3221   6.4040

          k = 0.0625 0.2526 0.0000 (  5496 PWs)   bands (ev):

    -9.7548  -7.6727  -7.2610  -6.6611  -6.2264  -5.5336  -4.4398  -3.1831
    -2.0991  -1.1891   0.3380   2.0295   3.0120   3.7200   5.0115   5.6307
     5.8603   6.2861

          k = 0.0625 0.3248 0.0000 (  5488 PWs)   bands (ev):

    -9.1072  -6.9179  -6.5091  -5.9109  -5.4932  -4.8068  -3.7175  -2.4602
    -1.4096  -0.5958   0.7658   1.9920   2.8030   3.3397   3.8172   4.1359
     4.3667   4.8032

          k = 0.0625 0.3969 0.0000 (  5490 PWs)   bands (ev):

    -8.3475  -5.9804  -5.5760  -4.9792  -4.5940  -3.9189  -2.8432  -1.5989
    -0.8089  -0.2384   0.7578   1.2689   1.7343   2.2604   2.5642   2.8008
     3.4346   3.8546

          k = 0.0625 0.4691 0.0000 (  5501 PWs)   bands (ev):

    -7.5575  -4.8646  -4.4682  -3.8710  -3.5873  -2.9394  -2.0217  -1.3317
    -0.5675  -0.4208  -0.1673   0.3693   0.8820   1.0622   1.7262   1.8856
     2.7445   3.2746

          k = 0.0625 0.5413 0.0000 (  5499 PWs)   bands (ev):

    -6.9598  -3.5861  -3.2723  -3.0289  -2.5943  -2.1545  -2.0344  -1.7049
    -1.4291  -1.1591  -0.8278  -0.3794   0.3169   0.9831   1.2252   1.9767
     2.3391   2.8319

          k = 0.1250 0.2165 0.0000 (  5513 PWs)   bands (ev):

    -9.8375  -7.7673  -7.3552  -6.7552  -6.3187  -5.6251  -4.5308  -3.2742
    -2.1875  -1.2694   0.2674   1.9687   3.0771   3.8100   5.2232   6.1671
     6.3961   6.6467

          k = 0.1250 0.2887 0.0000 (  5487 PWs)   bands (ev):

    -9.2654  -7.1062  -6.6967  -6.0981  -5.6754  -4.9871  -3.8961  -2.6389
    -1.5748  -0.7206   0.7355   2.2808   2.9316   3.8438   4.5855   4.9602
     5.1068   5.4686

          k = 0.1250 0.3608 0.0000 (  5494 PWs)   bands (ev):

    -8.5644  -6.2609  -5.8550  -5.2579  -4.8594  -4.1799  -3.0969  -1.8414
    -0.8645  -0.2096   0.9189   1.9849   2.5132   2.9927   3.4621   3.5006
     3.8361   4.2237

          k = 0.1250 0.4330 0.0000 (  5496 PWs)   bands (ev):

    -7.7875  -5.2352  -4.8351  -4.2387  -3.8957  -3.2327  -2.1905  -1.1021
    -0.6590   0.2074   0.5619   0.9244   1.4482   1.7255   2.1205   2.6620
     3.0026   3.6037

          k = 0.1250 0.5052 0.0000 (  5491 PWs)   bands (ev):

    -7.0709  -4.0353  -3.6507  -3.0543  -2.9881  -2.3218  -1.6625  -1.1071
    -0.8624  -0.7084  -0.2662   0.1586   0.7026   1.0707   1.6534   2.0568
     2.5032   3.1501

          k = 0.1250 0.5774 0.0000 (  5460 PWs)   bands (ev):

    -6.7396  -3.0261  -2.6652  -2.6256  -2.3189  -2.1862  -1.7236  -1.6493
    -1.3894  -1.0977  -0.8414  -0.3089   0.5398   0.9303   1.7663   1.8328
     2.4726   2.9372

          k = 0.1875 0.3248 0.0000 (  5509 PWs)   bands (ev):

    -8.6382  -6.3545  -5.9482  -5.3511  -4.9486  -4.2677  -3.1828  -1.9260
    -0.9197  -0.2045   1.0420   2.2603   3.1949   3.3500   3.7384   4.0479
     4.2414   4.3979

          k = 0.1875 0.3969 0.0000 (  5493 PWs)   bands (ev):

    -7.9106  -5.4210  -5.0193  -4.4230  -4.0608  -3.3921  -2.3271  -1.0980
    -0.4500   0.2142   1.2445   1.7668   2.1817   2.4599   2.7930   2.9812
     3.2976   3.3720

          k = 0.1875 0.4691 0.0000 (  5470 PWs)   bands (ev):

    -7.1706  -4.3100  -3.9173  -3.3200  -3.0814  -2.4310  -1.5324  -0.8129
    -0.0407   0.1015   0.3584   0.8190   1.2839   1.4934   1.9360   2.3691
     2.4650   2.8827

          k = 0.1875 0.5413 0.0000 (  5454 PWs)   bands (ev):

    -6.6322  -3.0386  -2.7397  -2.4917  -2.0512  -1.6188  -1.4945  -1.1658
    -0.9090  -0.6249  -0.3228   0.1018   0.8091   1.3571   1.5693   1.9743
     2.4121   2.6456

          k = 0.2500 0.4330 0.0000 (  5491 PWs)   bands (ev):

    -7.2094  -4.4019  -4.0078  -3.4112  -3.1367  -2.4816  -1.4968  -0.5904
     0.0223   0.8137   1.0843   1.3339   1.3701   1.6276   1.9644   2.3586
     2.3803   2.6576

          k = 0.2500 0.5052 0.0000 (  5430 PWs)   bands (ev):

    -6.6004  -3.2110  -2.8394  -2.3124  -2.2221  -1.5478  -0.8674  -0.3079
    -0.1367   0.0759   0.3313   0.5239   0.9989   1.1199   1.3778   1.4598
     1.8418   2.1447

          k = 0.2500 0.5774 0.0000 (  5430 PWs)   bands (ev):

    -6.3396  -2.2108  -1.8511  -1.8092  -1.5189  -1.3723  -0.9225  -0.8393
    -0.7133  -0.3357  -0.1678   0.2955   0.6340   1.0228   1.2502   1.3927
     1.6408   1.8274

          k = 0.3125 0.5413 0.0000 (  5411 PWs)   bands (ev):

    -6.2404  -1.9765  -1.7775  -1.4699  -1.0016  -0.8440  -0.5425  -0.4937
    -0.3992  -0.1285  -0.0259   0.1773   0.4123   0.4792   0.7370   0.7909
     1.1408   1.6549

     the Fermi energy is     2.2034 ev

!    total energy              =    -113.03244511 Ry
     Harris-Foulkes estimate   =    -113.03244612 Ry
     estimated scf accuracy    <       0.00000860 Ry

     The total energy is the sum of the following terms:

     one-electron contribution =   -1279.40828924 Ry
     hartree contribution      =     647.62862325 Ry
     xc contribution           =     -91.08858827 Ry
     ewald contribution        =     609.83525211 Ry
     smearing contrib. (-TS)   =       0.00055704 Ry

     convergence has been achieved in  29 iterations

     Forces acting on atoms (Ry/au):


     negative rho (up, down):  2.311E-05 0.000E+00
     atom    1 type  1   force =     0.00000000   -0.00000000   -0.00131767
     atom    2 type  1   force =     0.00000000    0.00000000    0.00230246
     atom    3 type  1   force =     0.00000000   -0.00000000   -0.00347258
     atom    4 type  1   force =     0.00000000   -0.00000000   -0.00218949
     atom    5 type  1   force =     0.00000000    0.00000000    0.00129389
     atom    6 type  1   force =    -0.00000000   -0.00000000    0.00103552
     atom    7 type  1   force =     0.00000000   -0.00000000   -0.00676706
     atom    8 type  1   force =     0.00000000    0.00000000    0.01314688
     atom    9 type  1   force =     0.00000000    0.00000000   -0.57035260
     atom   10 type  2   force =     0.00000000   -0.00000000    0.56632065

     Total force =     0.803907     Total SCF correction =     0.003473


     entering subroutine stress ...


     negative rho (up, down):  2.311E-05 0.000E+00
          total   stress  (Ry/bohr**3)                   (kbar)     P=   29.77
  -0.00000867   0.00000000   0.00000000         -1.28      0.00      0.00
   0.00000000  -0.00000867   0.00000000          0.00     -1.28      0.00
   0.00000000   0.00000000   0.00062441          0.00      0.00     91.85


     BFGS Geometry Optimization

     number of scf cycles    =   1
     number of bfgs steps    =   0

     energy   new            =    -113.0324451120 Ry

     new trust radius        =       0.5000000000 bohr
     new conv_thr            =       0.0000090000 Ry


ATOMIC_POSITIONS (crystal)
Al       0.333333300   0.666666600   0.111096480
Al       0.666666600   0.333333300   0.055581097
Al      -0.000000000  -0.000000000  -0.000038529
Al       0.333333300   0.666666600   0.277753474
Al       0.666666600   0.333333300   0.222236573
Al      -0.000000000  -0.000000000   0.166678156
Al       0.333333300   0.666666600   0.444369351
Al       0.666666600   0.333333300   0.389034752
Al       0.000000000   0.000000000   0.327005080
H       -0.000000000  -0.000000000   0.367394584



     Writing output data file Al_111_3_3.save
     NEW-OLD atomic charge density approx. for the potential

     negative rho (up, down):  4.935E-05 0.000E+00

     total cpu time spent up to now is      309.1 secs

     per-process dynamical memory:    97.9 Mb

     Self-consistent Calculation

     iteration #  1     ecut=    30.00 Ry     beta=0.30
     Davidson diagonalization with overlap
     ethr =  1.00E-06,  avg # of iterations = 11.2

     negative rho (up, down):  2.709E-04 0.000E+00

     total cpu time spent up to now is      338.2 secs

     total energy              =    -113.26153901 Ry
     Harris-Foulkes estimate   =    -113.29252853 Ry
     estimated scf accuracy    <       0.75230970 Ry

     iteration #  2     ecut=    30.00 Ry     beta=0.30
     Davidson diagonalization with overlap
     ethr =  2.69E-03,  avg # of iterations =  1.0

     negative rho (up, down):  1.752E-03 0.000E+00

     total cpu time spent up to now is      346.4 secs

     total energy              =    -113.21358926 Ry
     Harris-Foulkes estimate   =    -113.26435174 Ry
     estimated scf accuracy    <       0.38545073 Ry

     iteration #  3     ecut=    30.00 Ry     beta=0.30
     Davidson diagonalization with overlap
     ethr =  1.38E-03,  avg # of iterations =  1.7

     negative rho (up, down):  1.864E-03 0.000E+00

     total cpu time spent up to now is      354.5 secs

     total energy              =    -113.23327723 Ry
     Harris-Foulkes estimate   =    -113.23343045 Ry
     estimated scf accuracy    <       0.00200105 Ry

     iteration #  4     ecut=    30.00 Ry     beta=0.30
     Davidson diagonalization with overlap
     ethr =  7.15E-06,  avg # of iterations =  6.2

     negative rho (up, down):  2.208E-03 0.000E+00

     total cpu time spent up to now is      367.3 secs

     total energy              =    -113.23350013 Ry
     Harris-Foulkes estimate   =    -113.23387140 Ry
     estimated scf accuracy    <       0.00171767 Ry

     iteration #  5     ecut=    30.00 Ry     beta=0.30
     Davidson diagonalization with overlap
     ethr =  6.13E-06,  avg # of iterations =  2.5

     negative rho (up, down):  2.224E-03 0.000E+00

     total cpu time spent up to now is      376.1 secs

     total energy              =    -113.23353914 Ry
     Harris-Foulkes estimate   =    -113.23374206 Ry
     estimated scf accuracy    <       0.00310117 Ry

     iteration #  6     ecut=    30.00 Ry     beta=0.30
     Davidson diagonalization with overlap
     ethr =  6.13E-06,  avg # of iterations =  1.2

     negative rho (up, down):  2.120E-03 0.000E+00

     total cpu time spent up to now is      384.4 secs

     total energy              =    -113.23358340 Ry
     Harris-Foulkes estimate   =    -113.23361128 Ry
     estimated scf accuracy    <       0.00056767 Ry

     iteration #  7     ecut=    30.00 Ry     beta=0.30
     Davidson diagonalization with overlap
     ethr =  2.03E-06,  avg # of iterations =  2.4

     negative rho (up, down):  1.817E-03 0.000E+00

     total cpu time spent up to now is      393.1 secs

     total energy              =    -113.23358025 Ry
     Harris-Foulkes estimate   =    -113.23360548 Ry
     estimated scf accuracy    <       0.00006311 Ry

     iteration #  8     ecut=    30.00 Ry     beta=0.30
     Davidson diagonalization with overlap
     ethr =  2.25E-07,  avg # of iterations =  4.1

     negative rho (up, down):  1.799E-03 0.000E+00

     total cpu time spent up to now is      404.1 secs

     total energy              =    -113.23359111 Ry
     Harris-Foulkes estimate   =    -113.23360415 Ry
     estimated scf accuracy    <       0.00052945 Ry

     iteration #  9     ecut=    30.00 Ry     beta=0.30
     Davidson diagonalization with overlap
     ethr =  2.25E-07,  avg # of iterations =  1.1

     negative rho (up, down):  1.155E-03 0.000E+00

     total cpu time spent up to now is      412.3 secs

     total energy              =    -113.23353855 Ry
     Harris-Foulkes estimate   =    -113.23359285 Ry
     estimated scf accuracy    <       0.00028681 Ry

     iteration # 10     ecut=    30.00 Ry     beta=0.30
     Davidson diagonalization with overlap
     ethr =  2.25E-07,  avg # of iterations =  3.6

     negative rho (up, down):  1.223E-03 0.000E+00

     total cpu time spent up to now is      424.8 secs

     total energy              =    -113.23355882 Ry
     Harris-Foulkes estimate   =    -113.23357266 Ry
     estimated scf accuracy    <       0.00020688 Ry

     iteration # 11     ecut=    30.00 Ry     beta=0.30
     Davidson diagonalization with overlap
     ethr =  2.25E-07,  avg # of iterations =  1.9

     negative rho (up, down):  5.613E-04 0.000E+00

     total cpu time spent up to now is      435.5 secs

     total energy              =    -113.23355632 Ry
     Harris-Foulkes estimate   =    -113.23356682 Ry
     estimated scf accuracy    <       0.00001041 Ry

     iteration # 12     ecut=    30.00 Ry     beta=0.30
     Davidson diagonalization with overlap
     ethr =  3.72E-08,  avg # of iterations =  4.1

     negative rho (up, down):  5.759E-04 0.000E+00

     total cpu time spent up to now is      447.0 secs

     total energy              =    -113.23355546 Ry
     Harris-Foulkes estimate   =    -113.23356320 Ry
     estimated scf accuracy    <       0.00021173 Ry

     iteration # 13     ecut=    30.00 Ry     beta=0.30
     Davidson diagonalization with overlap
     ethr =  3.72E-08,  avg # of iterations =  2.3

     negative rho (up, down):  1.797E-04 0.000E+00

     total cpu time spent up to now is      456.1 secs

     total energy              =    -113.23354741 Ry
     Harris-Foulkes estimate   =    -113.23355757 Ry
     estimated scf accuracy    <       0.00004827 Ry

     iteration # 14     ecut=    30.00 Ry     beta=0.30
     Davidson diagonalization with overlap
     ethr =  3.72E-08,  avg # of iterations =  3.6

     negative rho (up, down):  1.454E-04 0.000E+00

     total cpu time spent up to now is      466.3 secs

     total energy              =    -113.23355163 Ry
     Harris-Foulkes estimate   =    -113.23355198 Ry
     estimated scf accuracy    <       0.00002235 Ry

     iteration # 15     ecut=    30.00 Ry     beta=0.30
     Davidson diagonalization with overlap
     ethr =  3.72E-08,  avg # of iterations =  1.0

     negative rho (up, down):  1.823E-05 0.000E+00

     total cpu time spent up to now is      474.2 secs

     total energy              =    -113.23354973 Ry
     Harris-Foulkes estimate   =    -113.23355165 Ry
     estimated scf accuracy    <       0.00001886 Ry

     iteration # 16     ecut=    30.00 Ry     beta=0.30
     Davidson diagonalization with overlap
     ethr =  3.72E-08,  avg # of iterations =  2.7

     negative rho (up, down):  1.635E-05 0.000E+00

     total cpu time spent up to now is      484.1 secs

     total energy              =    -113.23355156 Ry
     Harris-Foulkes estimate   =    -113.23355172 Ry
     estimated scf accuracy    <       0.00001306 Ry

     iteration # 17     ecut=    30.00 Ry     beta=0.30
     Davidson diagonalization with overlap
     ethr =  3.72E-08,  avg # of iterations =  1.0

     negative rho (up, down):  2.860E-05 0.000E+00

     total cpu time spent up to now is      493.4 secs

     total energy              =    -113.23355144 Ry
     Harris-Foulkes estimate   =    -113.23355159 Ry
     estimated scf accuracy    <       0.00000947 Ry

     iteration # 18     ecut=    30.00 Ry     beta=0.30
     Davidson diagonalization with overlap
     ethr =  3.38E-08,  avg # of iterations =  1.0

     negative rho (up, down):  1.876E-05 0.000E+00

     total cpu time spent up to now is      500.2 secs

     End of self-consistent calculation

          k = 0.0000 0.0000 0.0000 (  5537 PWs)   bands (ev):

   -10.3768  -9.0073  -8.6790  -8.0704  -7.3060  -6.7945  -5.8056  -4.4713
    -3.1705  -2.2068  -0.7770   0.8054   2.4432   3.7638   5.0069   5.8264
     5.9643   6.5138

          k = 0.0000 0.0722 0.0000 (  5524 PWs)   bands (ev):

   -10.2878  -8.9122  -8.5840  -7.9756  -7.2120  -6.7024  -5.7128  -4.3787
    -3.0778  -2.1186  -0.6908   0.8912   2.5293   3.8390   5.0861   5.9166
     6.0579   6.5941

          k = 0.0000 0.1443 0.0000 (  5500 PWs)   bands (ev):

   -10.0219  -8.6274  -8.2997  -7.6916  -6.9303  -6.4265  -5.4351  -4.1015
    -2.8009  -1.8555  -0.4357   1.1466   2.7851   4.0450   5.2993   6.1764
     6.3313   6.7767

          k = 0.0000 0.2165 0.0000 (  5496 PWs)   bands (ev):

    -9.5836  -8.1541  -7.8271  -7.2197  -6.4624  -5.9694  -4.9743  -3.6417
    -2.3421  -1.4220  -0.0229   1.5583   3.1922   4.2050   5.3219   6.1160
     6.3848   6.6600

          k = 0.0000 0.2887 0.0000 (  5490 PWs)   bands (ev):

    -8.9817  -7.4945  -7.1686  -6.5618  -5.8110  -5.3357  -4.3344  -3.0039
    -1.7072  -0.8345   0.4983   2.0360   3.2623   3.7046   4.3328   4.5921
     5.0914   5.3983

          k = 0.0000 0.3608 0.0000 (  5482 PWs)   bands (ev):

    -8.2349  -6.6520  -6.3272  -5.7210  -4.9807  -4.5357  -3.5233  -2.1991
    -0.9137  -0.2097   0.7694   1.7494   2.2231   2.6160   3.0281   3.3171
     3.8195   4.2267

          k = 0.0000 0.4330 0.0000 (  5488 PWs)   bands (ev):

    -7.3869  -5.6320  -5.3081  -4.7018  -3.9854  -3.6009  -2.5697  -1.3112
    -0.6135  -0.0841   0.2241   0.5911   1.1548   1.3968   1.9765   2.4174
     2.8228   3.3647

          k = 0.0000 0.5052 0.0000 (  5504 PWs)   bands (ev):

    -6.5647  -4.4467  -4.1224  -3.5158  -2.9841  -2.6476  -1.8895  -1.4342
    -1.3080  -1.0313  -0.6697  -0.1123   0.4868   0.8855   1.4668   1.7117
     2.3372   2.9358

          k = 0.0000-0.5774 0.0000 (  5484 PWs)   bands (ev):

    -6.1555  -3.3062  -3.1008  -2.8908  -2.7787  -2.5228  -2.1681  -2.1043
    -1.4878  -1.3637  -1.1904  -0.5173   0.2254   0.5350   1.4390   1.5356
     2.5659   2.8203

          k = 0.0625 0.1083 0.0000 (  5511 PWs)   bands (ev):

   -10.1103  -8.7223  -8.3944  -7.7862  -7.0241  -6.5183  -5.5276  -4.1937
    -2.8930  -1.9429  -0.5201   1.0622   2.7006   3.9811   5.2347   6.0934
     6.2426   6.7361

          k = 0.0625 0.1804 0.0000 (  5519 PWs)   bands (ev):

    -9.7582  -8.3432  -8.0160  -7.4083  -6.6493  -6.1519  -5.1583  -3.8252
    -2.5250  -1.5944  -0.1853   1.3971   3.0350   4.2016   5.4330   6.3616
     6.5325   6.7469

          k = 0.0625 0.2526 0.0000 (  5496 PWs)   bands (ev):

    -9.2377  -7.7767  -7.4504  -6.8434  -6.0896  -5.6061  -4.6077  -3.2761
    -1.9778  -1.0815   0.2903   1.8646   3.4711   3.9764   5.0522   5.5082
     5.7272   6.1400

          k = 0.0625 0.3248 0.0000 (  5488 PWs)   bands (ev):

    -8.5618  -7.0256  -6.7003  -6.0940  -5.3484  -4.8883  -3.8814  -2.5533
    -1.2604  -0.4437   0.7783   2.1147   2.8778   3.3132   3.5812   4.1299
     4.3786   4.8658

          k = 0.0625 0.3969 0.0000 (  5490 PWs)   bands (ev):

    -7.7589  -6.0940  -5.7699  -5.1638  -4.4334  -4.0153  -2.9932  -1.6810
    -0.4316  -0.1288   0.7363   1.2107   1.6183   2.1324   2.4783   2.9283
     3.3948   3.7346

          k = 0.0625 0.4691 0.0000 (  5501 PWs)   bands (ev):

    -6.9023  -4.9894  -4.6658  -4.0591  -3.3800  -3.0515  -2.0288  -1.2155
    -0.6548  -0.4682  -0.2949   0.2606   0.9448   1.1738   1.6769   1.9233
     2.5729   3.2497

          k = 0.0625 0.5413 0.0000 (  5499 PWs)   bands (ev):

    -6.2208  -3.7413  -3.4157  -2.8945  -2.7264  -2.2492  -2.0403  -1.8668
    -1.4346  -1.2709  -0.8444  -0.4046   0.3505   0.8891   1.1061   2.0891
     2.2462   2.9466

          k = 0.1250 0.2165 0.0000 (  5513 PWs)   bands (ev):

    -9.3236  -7.8710  -7.5445  -6.9373  -6.1827  -5.6966  -4.6991  -3.3672
    -2.0685  -1.1653   0.2167   1.7965   3.4295   4.2043   5.3096   6.2415
     6.4292   6.5480

          k = 0.1250 0.2887 0.0000 (  5487 PWs)   bands (ev):

    -8.7277  -7.2129  -6.8874  -6.2809  -5.5330  -5.0659  -4.0615  -2.7322
    -1.4369  -0.5877   0.7140   2.2420   3.4370   3.8416   4.4931   4.7942
     5.1819   5.3273

          k = 0.1250 0.3608 0.0000 (  5494 PWs)   bands (ev):

    -7.9906  -6.3724  -6.0480  -5.4420  -4.7055  -4.2707  -3.2543  -1.9322
    -0.6494   0.0024   0.9751   1.9968   2.4716   2.8520   3.2453   3.5048
     4.0375   4.2083

          k = 0.1250 0.4330 0.0000 (  5496 PWs)   bands (ev):

    -7.1583  -5.3550  -5.0313  -4.4251  -3.7150  -3.3425  -2.3067  -1.0567
    -0.3734   0.1747   0.4823   0.8390   1.4066   1.6555   2.2282   2.5601
     3.0268   3.5070

          k = 0.1250 0.5052 0.0000 (  5491 PWs)   bands (ev):

    -6.3612  -4.1730  -3.8485  -3.2430  -2.7300  -2.3819  -1.6224  -1.1667
    -1.0411  -0.7642  -0.4048   0.1413   0.7479   1.1187   1.7046   1.9312
     2.5581   3.0771

          k = 0.1250 0.5774 0.0000 (  5460 PWs)   bands (ev):

    -5.9723  -3.0329  -2.8306  -2.6171  -2.5080  -2.2486  -1.8985  -1.8317
    -1.2257  -1.0958  -0.9379  -0.2583   0.4798   0.7949   1.6667   1.7761
     2.7775   2.9401

          k = 0.1875 0.3248 0.0000 (  5509 PWs)   bands (ev):

    -8.0690  -6.4654  -6.1409  -5.5350  -4.7966  -4.3566  -3.3420  -2.0179
    -0.7307  -0.0089   1.0924   2.3900   3.2363   3.3697   3.6465   3.9436
     4.0897   4.3201

          k = 0.1875 0.3969 0.0000 (  5493 PWs)   bands (ev):

    -7.2940  -5.5386  -5.2148  -4.6088  -3.8895  -3.4973  -2.4652  -1.1637
     0.0494   0.2277   1.2257   1.6879   2.0783   2.5201   2.6426   2.9353
     3.2791   3.3870

          k = 0.1875 0.4691 0.0000 (  5470 PWs)   bands (ev):

    -6.4835  -4.4401  -4.1162  -3.5101  -2.8592  -2.5447  -1.5165  -0.7034
    -0.1286   0.0508   0.2239   0.7525   1.3817   1.5962   1.9027   2.3747
     2.4308   2.8747

          k = 0.1875 0.5413 0.0000 (  5454 PWs)   bands (ev):

    -5.8641  -3.2001  -2.8726  -2.3612  -2.1836  -1.7178  -1.5047  -1.3279
    -0.9089  -0.7396  -0.3329   0.0975   0.8434   1.3119   1.5202   2.0670
     2.3510   2.5969

          k = 0.2500 0.4330 0.0000 (  5491 PWs)   bands (ev):

    -6.5301  -4.5300  -4.2063  -3.6004  -2.9280  -2.6007  -1.5518  -0.4126
     0.1484   0.8510   0.9822   1.2076   1.3501   1.5267   1.9069   2.2589
     2.3545   2.5582

          k = 0.2500 0.5052 0.0000 (  5430 PWs)   bands (ev):

    -5.8407  -3.3605  -3.0343  -2.4332  -2.0245  -1.5953  -0.8298  -0.3964
    -0.2505   0.0080   0.3721   0.4945   0.8667   1.0951   1.2811   1.4863
     1.7848   2.1281

          k = 0.2500 0.5774 0.0000 (  5430 PWs)   bands (ev):

    -5.5317  -2.2180  -2.0304  -1.8021  -1.7034  -1.4361  -1.0967  -1.0261
    -0.5172  -0.3047  -0.2582   0.4319   0.5675   1.0263   1.1734   1.2716
     1.5166   1.7605

          k = 0.3125 0.5413 0.0000 (  5411 PWs)   bands (ev):

    -5.4210  -2.1511  -1.8136  -1.3985  -1.1362  -0.8634  -0.6880  -0.5141
    -0.4038  -0.2611  -0.1079   0.2002   0.2169   0.4086   0.6818   0.9090
     1.1220   1.6317

     the Fermi energy is     2.1906 ev

!    total energy              =    -113.23354641 Ry
     Harris-Foulkes estimate   =    -113.23355147 Ry
     estimated scf accuracy    <       0.00000518 Ry

     The total energy is the sum of the following terms:

     one-electron contribution =   -1283.13243848 Ry
     hartree contribution      =     649.47402447 Ry
     xc contribution           =     -91.00834806 Ry
     ewald contribution        =     611.43293261 Ry
     smearing contrib. (-TS)   =       0.00028305 Ry

     convergence has been achieved in  18 iterations

     Forces acting on atoms (Ry/au):


     negative rho (up, down):  1.876E-05 0.000E+00
     atom    1 type  1   force =     0.00000000    0.00000000   -0.00138319
     atom    2 type  1   force =     0.00000000    0.00000000    0.00192172
     atom    3 type  1   force =     0.00000000    0.00000000   -0.00259158
     atom    4 type  1   force =     0.00000000    0.00000000   -0.04342655
     atom    5 type  1   force =     0.00000000    0.00000000    0.00106352
     atom    6 type  1   force =     0.00000000    0.00000000    0.00152616
     atom    7 type  1   force =     0.00000000    0.00000000   -0.00293074
     atom    8 type  1   force =     0.00000000    0.00000000    0.01411976
     atom    9 type  1   force =     0.00000000    0.00000000    0.00120441
     atom   10 type  2   force =    -0.00000000   -0.00000000    0.03049649

     Total force =     0.055146     Total SCF correction =     0.004062


     entering subroutine stress ...


     negative rho (up, down):  1.876E-05 0.000E+00
          total   stress  (Ry/bohr**3)                   (kbar)     P=    8.10
   0.00001004  -0.00000000   0.00000000          1.48     -0.00      0.00
  -0.00000000   0.00001004   0.00000000         -0.00      1.48      0.00
   0.00000000   0.00000000   0.00014518          0.00      0.00     21.36


     number of scf cycles    =   2
     number of bfgs steps    =   1

     energy   old            =    -113.0324451120 Ry
     energy   new            =    -113.2335464070 Ry

     CASE: energy  _new < energy  _old

     new trust radius        =       0.0445948718 bohr
     new conv_thr            =       0.0000039084 Ry


ATOMIC_POSITIONS (crystal)
Al       0.333333300   0.666666600   0.111078488
Al       0.666666600   0.333333300   0.055606099
Al       0.000000000   0.000000000  -0.000072251
Al       0.333333300   0.666666600   0.277189058
Al       0.666666600   0.333333300   0.222250410
Al       0.000000000   0.000000000   0.166698003
Al       0.333333300   0.666666600   0.444331182
Al       0.666666600   0.333333300   0.389218413
Al       0.000000000   0.000000000   0.327014036
H       -0.000000000  -0.000000000   0.367797579



     Writing output data file Al_111_3_3.save
     NEW-OLD atomic charge density approx. for the potential

     negative rho (up, down):  2.167E-05 0.000E+00

     total cpu time spent up to now is      508.0 secs

     per-process dynamical memory:    97.9 Mb

     Self-consistent Calculation

     iteration #  1     ecut=    30.00 Ry     beta=0.30
     Davidson diagonalization with overlap
     ethr =  1.00E-06,  avg # of iterations =  5.6

     negative rho (up, down):  4.872E-05 0.000E+00

     total cpu time spent up to now is      529.6 secs

     total energy              =    -113.23677726 Ry
     Harris-Foulkes estimate   =    -113.23719142 Ry
     estimated scf accuracy    <       0.01977492 Ry

     iteration #  2     ecut=    30.00 Ry     beta=0.30
     Davidson diagonalization with overlap
     ethr =  7.06E-05,  avg # of iterations =  1.0

     negative rho (up, down):  2.540E-04 0.000E+00

     total cpu time spent up to now is      537.9 secs

     total energy              =    -113.23594296 Ry
     Harris-Foulkes estimate   =    -113.23682582 Ry
     estimated scf accuracy    <       0.01128700 Ry

     iteration #  3     ecut=    30.00 Ry     beta=0.30
     Davidson diagonalization with overlap
     ethr =  4.03E-05,  avg # of iterations =  1.7

     negative rho (up, down):  2.404E-04 0.000E+00

     total cpu time spent up to now is      546.2 secs

     total energy              =    -113.23639275 Ry
     Harris-Foulkes estimate   =    -113.23646294 Ry
     estimated scf accuracy    <       0.00053017 Ry

     iteration #  4     ecut=    30.00 Ry     beta=0.30
     Davidson diagonalization with overlap
     ethr =  1.89E-06,  avg # of iterations =  2.9

     negative rho (up, down):  3.266E-04 0.000E+00

     total cpu time spent up to now is      556.3 secs

     total energy              =    -113.23642996 Ry
     Harris-Foulkes estimate   =    -113.23649393 Ry
     estimated scf accuracy    <       0.00089148 Ry

     iteration #  5     ecut=    30.00 Ry     beta=0.30
     Davidson diagonalization with overlap
     ethr =  1.89E-06,  avg # of iterations =  1.6

     negative rho (up, down):  3.486E-04 0.000E+00

     total cpu time spent up to now is      565.1 secs

     total energy              =    -113.23645668 Ry
     Harris-Foulkes estimate   =    -113.23645780 Ry
     estimated scf accuracy    <       0.00001291 Ry

     iteration #  6     ecut=    30.00 Ry     beta=0.30
     Davidson diagonalization with overlap
     ethr =  4.61E-08,  avg # of iterations =  3.6

     negative rho (up, down):  3.172E-04 0.000E+00

     total cpu time spent up to now is      576.4 secs

     total energy              =    -113.23645761 Ry
     Harris-Foulkes estimate   =    -113.23646067 Ry
     estimated scf accuracy    <       0.00002437 Ry

     iteration #  7     ecut=    30.00 Ry     beta=0.30
     Davidson diagonalization with overlap
     ethr =  4.61E-08,  avg # of iterations =  2.1

     negative rho (up, down):  3.021E-04 0.000E+00

     total cpu time spent up to now is      586.1 secs

     total energy              =    -113.23645904 Ry
     Harris-Foulkes estimate   =    -113.23645922 Ry
     estimated scf accuracy    <       0.00000699 Ry

     iteration #  8     ecut=    30.00 Ry     beta=0.30
     Davidson diagonalization with overlap
     ethr =  2.50E-08,  avg # of iterations =  1.0

     negative rho (up, down):  1.369E-04 0.000E+00

     total cpu time spent up to now is      595.7 secs

     total energy              =    -113.23645717 Ry
     Harris-Foulkes estimate   =    -113.23645909 Ry
     estimated scf accuracy    <       0.00000820 Ry

     iteration #  9     ecut=    30.00 Ry     beta=0.30
     Davidson diagonalization with overlap
     ethr =  2.50E-08,  avg # of iterations =  2.0

     negative rho (up, down):  1.879E-05 0.000E+00

     total cpu time spent up to now is      603.8 secs

     End of self-consistent calculation

          k = 0.0000 0.0000 0.0000 (  5537 PWs)   bands (ev):

   -10.3591  -9.0173  -8.6766  -8.0586  -7.3113  -6.7855  -5.8123  -4.4804
    -3.1638  -2.1996  -0.7810   0.7940   2.4537   3.7745   5.0074   5.8336
     5.9350   6.5018

          k = 0.0000 0.0722 0.0000 (  5524 PWs)   bands (ev):

   -10.2700  -8.9222  -8.5816  -7.9637  -7.2173  -6.6933  -5.7196  -4.3878
    -3.0712  -2.1113  -0.6949   0.8798   2.5398   3.8502   5.0864   5.9243
     6.0290   6.5820

          k = 0.0000 0.1443 0.0000 (  5500 PWs)   bands (ev):

   -10.0042  -8.6373  -8.2971  -7.6797  -6.9356  -6.4174  -5.4421  -4.1106
    -2.7941  -1.8480  -0.4399   1.1351   2.7957   4.0586   5.2989   6.1866
     6.3050   6.7650

          k = 0.0000 0.2165 0.0000 (  5496 PWs)   bands (ev):

    -9.5658  -8.1638  -7.8243  -7.2078  -6.4678  -5.9602  -4.9815  -3.6509
    -2.3351  -1.4141  -0.0274   1.5467   3.2029   4.2272   5.3202   6.1242
     6.3825   6.6660

          k = 0.0000 0.2887 0.0000 (  5490 PWs)   bands (ev):

    -8.9638  -7.5039  -7.1653  -6.5499  -5.8165  -5.3265  -4.3420  -3.0131
    -1.6999  -0.8257   0.4938   2.0267   3.2820   3.7113   4.3257   4.6015
     5.1007   5.4014

          k = 0.0000 0.3608 0.0000 (  5482 PWs)   bands (ev):

    -8.2168  -6.6610  -6.3233  -5.7090  -4.9864  -4.5264  -3.5318  -2.2083
    -0.9057  -0.1971   0.7711   1.7510   2.2184   2.6146   3.0375   3.3116
     3.8167   4.2373

          k = 0.0000 0.4330 0.0000 (  5488 PWs)   bands (ev):

    -7.3686  -5.6402  -5.3030  -4.6895  -3.9913  -3.5919  -2.5797  -1.3167
    -0.5949  -0.0792   0.2190   0.5934   1.1582   1.4027   1.9699   2.4219
     2.8235   3.3607

          k = 0.0000 0.5052 0.0000 (  5504 PWs)   bands (ev):

    -6.5460  -4.4525  -4.1150  -3.5030  -2.9868  -2.6453  -1.8789  -1.4472
    -1.3016  -1.0369  -0.6626  -0.1173   0.4816   0.8961   1.4710   1.7066
     2.3419   2.9268

          k = 0.0000-0.5774 0.0000 (  5484 PWs)   bands (ev):

    -6.1364  -3.2868  -3.1039  -2.8911  -2.7714  -2.5377  -2.1575  -2.0935
    -1.4928  -1.3718  -1.1826  -0.5234   0.2235   0.5385   1.4266   1.5323
     2.5772   2.8223

          k = 0.0625 0.1083 0.0000 (  5511 PWs)   bands (ev):

   -10.0926  -8.7322  -8.3919  -7.7743  -7.0294  -6.5093  -5.5345  -4.2029
    -2.8862  -1.9355  -0.5243   1.0507   2.7112   3.9938   5.2346   6.1024
     6.2148   6.7240

          k = 0.0625 0.1804 0.0000 (  5519 PWs)   bands (ev):

    -9.7404  -8.3530  -8.0132  -7.3964  -6.6547  -6.1427  -5.1654  -3.8343
    -2.5181  -1.5867  -0.1896   1.3855   3.0457   4.2191   5.4316   6.3803
     6.5225   6.7214

          k = 0.0625 0.2526 0.0000 (  5496 PWs)   bands (ev):

    -9.2198  -7.7863  -7.4473  -6.8314  -6.0950  -5.5969  -4.6152  -3.2853
    -1.9707  -1.0732   0.2857   1.8533   3.4829   4.0007   5.0474   5.5078
     5.7313   6.1501

          k = 0.0625 0.3248 0.0000 (  5488 PWs)   bands (ev):

    -8.5438  -7.0348  -6.6967  -6.0820  -5.3540  -4.8790  -3.8895  -2.5626
    -1.2528  -0.4336   0.7748   2.1160   2.8820   3.3060   3.5846   4.1422
     4.3876   4.8607

          k = 0.0625 0.3969 0.0000 (  5490 PWs)   bands (ev):

    -7.7407  -6.1027  -5.7654  -5.1516  -4.4392  -4.0061  -3.0023  -1.6899
    -0.4210  -0.1133   0.7412   1.2036   1.6149   2.1399   2.4805   2.9228
     3.4001   3.7309

          k = 0.0625 0.4691 0.0000 (  5501 PWs)   bands (ev):

    -6.8838  -4.9967  -4.6597  -4.0467  -3.3856  -3.0440  -2.0385  -1.1977
    -0.6622  -0.4750  -0.2942   0.2693   0.9497   1.1727   1.6842   1.9232
     2.5667   3.2501

          k = 0.0625 0.5413 0.0000 (  5499 PWs)   bands (ev):

    -6.2018  -3.7427  -3.4057  -2.8858  -2.7195  -2.2563  -2.0389  -1.8661
    -1.4285  -1.2687  -0.8521  -0.4077   0.3540   0.8858   1.1020   2.0957
     2.2383   2.9532

          k = 0.1250 0.2165 0.0000 (  5513 PWs)   bands (ev):

    -9.3057  -7.8806  -7.5414  -6.9254  -6.1881  -5.6875  -4.7065  -3.3764
    -2.0614  -1.1571   0.2121   1.7849   3.4405   4.2299   5.3051   6.2402
     6.4533   6.5584

          k = 0.1250 0.2887 0.0000 (  5487 PWs)   bands (ev):

    -8.7097  -7.2222  -6.8839  -6.2689  -5.5386  -5.0566  -4.0694  -2.7415
    -1.4295  -0.5784   0.7093   2.2333   3.4576   3.8459   4.4925   4.8045
     5.1962   5.3325

          k = 0.1250 0.3608 0.0000 (  5494 PWs)   bands (ev):

    -7.9724  -6.3813  -6.0438  -5.4299  -4.7112  -4.2614  -3.2630  -1.9413
    -0.6410   0.0156   0.9755   1.9986   2.4672   2.8516   3.2543   3.5028
     4.0360   4.2210

          k = 0.1250 0.4330 0.0000 (  5496 PWs)   bands (ev):

    -7.1399  -5.3629  -5.0260  -4.4128  -3.7208  -3.3337  -2.3169  -1.0618
    -0.3554   0.1798   0.4771   0.8419   1.4101   1.6613   2.2215   2.5647
     3.0302   3.5033

          k = 0.1250 0.5052 0.0000 (  5491 PWs)   bands (ev):

    -6.3424  -4.1783  -3.8408  -3.2302  -2.7328  -2.3800  -1.6118  -1.1795
    -1.0346  -0.7698  -0.3978   0.1364   0.7427   1.1297   1.7081   1.9257
     2.5643   3.0731

          k = 0.1250 0.5774 0.0000 (  5460 PWs)   bands (ev):

    -5.9531  -3.0132  -2.8332  -2.6176  -2.5006  -2.2635  -1.8879  -1.8209
    -1.2309  -1.1041  -0.9303  -0.2646   0.4776   0.7982   1.6550   1.7730
     2.7897   2.9421

          k = 0.1875 0.3248 0.0000 (  5509 PWs)   bands (ev):

    -8.0509  -6.4743  -6.1368  -5.5229  -4.8023  -4.3473  -3.3506  -2.0271
    -0.7225   0.0031   1.0891   2.3920   3.2379   3.3837   3.6460   3.9485
     4.1000   4.3064

          k = 0.1875 0.3969 0.0000 (  5493 PWs)   bands (ev):

    -7.2757  -5.5467  -5.2097  -4.5966  -3.8954  -3.4883  -2.4750  -1.1722
     0.0673   0.2351   1.2296   1.6830   2.0820   2.5257   2.6553   2.9339
     3.2766   3.3850

          k = 0.1875 0.4691 0.0000 (  5470 PWs)   bands (ev):

    -6.4648  -4.4466  -4.1095  -3.4975  -2.8645  -2.5384  -1.5263  -0.6863
    -0.1354   0.0436   0.2265   0.7614   1.3870   1.5972   1.9108   2.3830
     2.4337   2.8703

          k = 0.1875 0.5413 0.0000 (  5454 PWs)   bands (ev):

    -5.8448  -3.2002  -2.8623  -2.3538  -2.1770  -1.7239  -1.5031  -1.3266
    -0.9041  -0.7371  -0.3413   0.0941   0.8475   1.3070   1.5211   2.0873
     2.3497   2.5933

          k = 0.2500 0.4330 0.0000 (  5491 PWs)   bands (ev):

    -6.5115  -4.5368  -4.1999  -3.5879  -2.9336  -2.5935  -1.5630  -0.4103
     0.1570   0.8574   1.0007   1.2010   1.3507   1.5300   1.9037   2.2614
     2.3608   2.5622

          k = 0.2500 0.5052 0.0000 (  5430 PWs)   bands (ev):

    -5.8215  -3.3638  -3.0254  -2.4202  -2.0286  -1.5955  -0.8195  -0.4065
    -0.2443   0.0030   0.3785   0.5096   0.8659   1.0928   1.2766   1.4830
     1.7915   2.1287

          k = 0.2500 0.5774 0.0000 (  5430 PWs)   bands (ev):

    -5.5121  -2.1978  -2.0308  -1.8028  -1.6955  -1.4509  -1.0863  -1.0149
    -0.5226  -0.3135  -0.2522   0.4290   0.5837   1.0242   1.1653   1.2699
     1.5202   1.7649

          k = 0.3125 0.5413 0.0000 (  5411 PWs)   bands (ev):

    -5.4012  -2.1452  -1.8030  -1.4003  -1.1289  -0.8437  -0.6886  -0.5172
    -0.3996  -0.2607  -0.1215   0.2043   0.2297   0.4064   0.6761   0.9051
     1.1165   1.6328

     the Fermi energy is     2.1919 ev

!    total energy              =    -113.23645602 Ry
     Harris-Foulkes estimate   =    -113.23645742 Ry
     estimated scf accuracy    <       0.00000117 Ry

     The total energy is the sum of the following terms:

     one-electron contribution =   -1282.74744582 Ry
     hartree contribution      =     649.25108829 Ry
     xc contribution           =     -91.00623055 Ry
     ewald contribution        =     611.26586294 Ry
     smearing contrib. (-TS)   =       0.00026913 Ry

     convergence has been achieved in   9 iterations

     Forces acting on atoms (Ry/au):


     negative rho (up, down):  1.879E-05 0.000E+00
     atom    1 type  1   force =     0.00000000   -0.00000000   -0.00109220
     atom    2 type  1   force =     0.00000000    0.00000000    0.00142831
     atom    3 type  1   force =     0.00000000    0.00000000   -0.00237606
     atom    4 type  1   force =     0.00000000    0.00000000   -0.03624251
     atom    5 type  1   force =     0.00000000    0.00000000   -0.00151960
     atom    6 type  1   force =     0.00000000    0.00000000    0.00130205
     atom    7 type  1   force =     0.00000000    0.00000000   -0.00178994
     atom    8 type  1   force =     0.00000000    0.00000000    0.01337787
     atom    9 type  1   force =     0.00000000    0.00000000    0.00033561
     atom   10 type  2   force =     0.00000000    0.00000000    0.02657648

     Total force =     0.047064     Total SCF correction =     0.001628


     entering subroutine stress ...


     negative rho (up, down):  1.879E-05 0.000E+00
          total   stress  (Ry/bohr**3)                   (kbar)     P=    7.59
   0.00000776  -0.00000000   0.00000000          1.14     -0.00      0.00
   0.00000000   0.00000776   0.00000000          0.00      1.14      0.00
  -0.00000000  -0.00000000   0.00013929         -0.00     -0.00     20.49


     number of scf cycles    =   3
     number of bfgs steps    =   2

     energy   old            =    -113.2335464070 Ry
     energy   new            =    -113.2364560171 Ry

     CASE: energy  _new < energy  _old


     WARNING: bfgs curvature condition failed, Theta= 0.939
     new trust radius        =       0.0668923077 bohr
     new conv_thr            =       0.0000026186 Ry


ATOMIC_POSITIONS (crystal)
Al       0.333333300   0.666666600   0.111052790
Al       0.666666600   0.333333300   0.055639967
Al       0.000000000   0.000000000  -0.000127232
Al       0.333333300   0.666666600   0.276342435
Al       0.666666600   0.333333300   0.222221392
Al       0.000000000   0.000000000   0.166728356
Al       0.333333300   0.666666600   0.444287513
Al       0.666666600   0.333333300   0.389526819
Al       0.000000000   0.000000000   0.327015488
H       -0.000000000  -0.000000000   0.368423488



     Writing output data file Al_111_3_3.save
     NEW-OLD atomic charge density approx. for the potential

     negative rho (up, down):  2.428E-05 0.000E+00

     total cpu time spent up to now is      611.0 secs

     per-process dynamical memory:    97.9 Mb

     Self-consistent Calculation

     iteration #  1     ecut=    30.00 Ry     beta=0.30
     Davidson diagonalization with overlap
     ethr =  1.00E-06,  avg # of iterations =  6.4

     negative rho (up, down):  3.160E-05 0.000E+00

     total cpu time spent up to now is      633.0 secs

     total energy              =    -113.24035870 Ry
     Harris-Foulkes estimate   =    -113.24075489 Ry
     estimated scf accuracy    <       0.01884818 Ry

     iteration #  2     ecut=    30.00 Ry     beta=0.30
     Davidson diagonalization with overlap
     ethr =  6.73E-05,  avg # of iterations =  1.0

     negative rho (up, down):  1.061E-04 0.000E+00

     total cpu time spent up to now is      642.3 secs

     total energy              =    -113.23952399 Ry
     Harris-Foulkes estimate   =    -113.24040000 Ry
     estimated scf accuracy    <       0.01100590 Ry

     iteration #  3     ecut=    30.00 Ry     beta=0.30
     Davidson diagonalization with overlap
     ethr =  3.93E-05,  avg # of iterations =  1.5

     negative rho (up, down):  1.043E-04 0.000E+00

     total cpu time spent up to now is      650.9 secs

     total energy              =    -113.24000887 Ry
     Harris-Foulkes estimate   =    -113.24001761 Ry
     estimated scf accuracy    <       0.00022576 Ry

     iteration #  4     ecut=    30.00 Ry     beta=0.30
     Davidson diagonalization with overlap
     ethr =  8.06E-07,  avg # of iterations =  3.3

     negative rho (up, down):  1.051E-04 0.000E+00

     total cpu time spent up to now is      661.3 secs

     total energy              =    -113.24002729 Ry
     Harris-Foulkes estimate   =    -113.24002775 Ry
     estimated scf accuracy    <       0.00016788 Ry

     iteration #  5     ecut=    30.00 Ry     beta=0.30
     Davidson diagonalization with overlap
     ethr =  6.00E-07,  avg # of iterations =  1.0

     negative rho (up, down):  1.131E-04 0.000E+00

     total cpu time spent up to now is      670.8 secs

     total energy              =    -113.23998508 Ry
     Harris-Foulkes estimate   =    -113.24002801 Ry
     estimated scf accuracy    <       0.00017339 Ry

     iteration #  6     ecut=    30.00 Ry     beta=0.30
     Davidson diagonalization with overlap
     ethr =  6.00E-07,  avg # of iterations =  2.6

     negative rho (up, down):  1.124E-04 0.000E+00

     total cpu time spent up to now is      681.1 secs

     total energy              =    -113.24002062 Ry
     Harris-Foulkes estimate   =    -113.24003948 Ry
     estimated scf accuracy    <       0.00047535 Ry

     iteration #  7     ecut=    30.00 Ry     beta=0.30
     Davidson diagonalization with overlap
     ethr =  6.00E-07,  avg # of iterations =  1.0

     negative rho (up, down):  1.098E-04 0.000E+00

     total cpu time spent up to now is      689.7 secs

     total energy              =    -113.24005529 Ry
     Harris-Foulkes estimate   =    -113.24002367 Ry
     estimated scf accuracy    <       0.00022004 Ry

     iteration #  8     ecut=    30.00 Ry     beta=0.30
     Davidson diagonalization with overlap
     ethr =  6.00E-07,  avg # of iterations =  1.3

     negative rho (up, down):  1.160E-04 0.000E+00

     total cpu time spent up to now is      698.9 secs

     total energy              =    -113.23996961 Ry
     Harris-Foulkes estimate   =    -113.24006840 Ry
     estimated scf accuracy    <       0.00093215 Ry

     iteration #  9     ecut=    30.00 Ry     beta=0.30
     Davidson diagonalization with overlap
     ethr =  6.00E-07,  avg # of iterations =  2.7

     negative rho (up, down):  1.883E-05 0.000E+00

     total cpu time spent up to now is      707.4 secs

     End of self-consistent calculation

          k = 0.0000 0.0000 0.0000 (  5537 PWs)   bands (ev):

   -10.3374  -9.0384  -8.6787  -8.0467  -7.3220  -6.7760  -5.8255  -4.4989
    -3.1589  -2.1918  -0.7929   0.7724   2.4636   3.7879   5.0046   5.8364
     5.9545   6.5199

          k = 0.0000 0.0722 0.0000 (  5524 PWs)   bands (ev):

   -10.2483  -8.9433  -8.5837  -7.9519  -7.2280  -6.6838  -5.7328  -4.4063
    -3.0662  -2.1034  -0.7068   0.8581   2.5497   3.8645   5.0833   5.9276
     6.0480   6.6010

          k = 0.0000 0.1443 0.0000 (  5500 PWs)   bands (ev):

    -9.9823  -8.6583  -8.2990  -7.6678  -6.9464  -6.4078  -5.4555  -4.1292
    -2.7890  -1.8399  -0.4521   1.1133   2.8056   4.0766   5.2946   6.1932
     6.3206   6.7895

          k = 0.0000 0.2165 0.0000 (  5496 PWs)   bands (ev):

    -9.5437  -8.1847  -7.8258  -7.1958  -6.4787  -5.9505  -4.9954  -3.6695
    -2.3298  -1.4053  -0.0400   1.5249   3.2125   4.2584   5.3122   6.1293
     6.3740   6.6680

          k = 0.0000 0.2887 0.0000 (  5490 PWs)   bands (ev):

    -8.9414  -7.5246  -7.1663  -6.5379  -5.8274  -5.3166  -4.3567  -3.0318
    -1.6942  -0.8154   0.4810   2.0083   3.3036   3.7170   4.3091   4.6087
     5.1089   5.4028

          k = 0.0000 0.3608 0.0000 (  5482 PWs)   bands (ev):

    -8.1940  -6.6811  -6.3234  -5.6968  -4.9975  -4.5164  -3.5476  -2.2271
    -0.8990  -0.1811   0.7672   1.7472   2.2062   2.6060   3.0441   3.3001
     3.8094   4.2485

          k = 0.0000 0.4330 0.0000 (  5488 PWs)   bands (ev):

    -7.3450  -5.6593  -5.3018  -4.6770  -4.0025  -3.5825  -2.5980  -1.3310
    -0.5721  -0.0788   0.2063   0.5919   1.1587   1.4071   1.9570   2.4234
     2.8190   3.3523

          k = 0.0000 0.5052 0.0000 (  5504 PWs)   bands (ev):

    -6.5211  -4.4688  -4.1108  -3.4895  -2.9936  -2.6456  -1.8717  -1.4728
    -1.2953  -1.0483  -0.6575  -0.1285   0.4699   0.9078   1.4728   1.6964
     2.3453   2.9086

          k = 0.0000-0.5774 0.0000 (  5484 PWs)   bands (ev):

    -6.1104  -3.2694  -3.1167  -2.8964  -2.7669  -2.5629  -2.1472  -2.0824
    -1.5032  -1.3863  -1.1752  -0.5358   0.2159   0.5419   1.4029   1.5232
     2.5893   2.8207

          k = 0.0625 0.1083 0.0000 (  5511 PWs)   bands (ev):

   -10.0707  -8.7532  -8.3938  -7.7625  -7.0402  -6.4997  -5.5479  -4.2214
    -2.8812  -1.9275  -0.5364   1.0290   2.7210   4.0102   5.2307   6.1073
     6.2321   6.7460

          k = 0.0625 0.1804 0.0000 (  5519 PWs)   bands (ev):

    -9.7184  -8.3740  -8.0149  -7.3844  -6.6655  -6.1331  -5.1792  -3.8529
    -2.5129  -1.5782  -0.2021   1.3636   3.0554   4.2432   5.4252   6.4019
     6.5179   6.7478

          k = 0.0625 0.2526 0.0000 (  5496 PWs)   bands (ev):

    -9.1975  -7.8071  -7.4486  -6.8194  -6.1060  -5.5871  -4.6294  -3.3040
    -1.9652  -1.0637   0.2728   1.8320   3.4929   4.0353   5.0340   5.4981
     5.7330   6.1598

          k = 0.0625 0.3248 0.0000 (  5488 PWs)   bands (ev):

    -8.5212  -7.0552  -6.6973  -6.0699  -5.3651  -4.8690  -3.9047  -2.5813
    -1.2467  -0.4213   0.7635   2.1125   2.8821   3.2890   3.5837   4.1552
     4.3960   4.8492

          k = 0.0625 0.3969 0.0000 (  5490 PWs)   bands (ev):

    -7.7175  -6.1223  -5.7649  -5.1393  -4.4504  -3.9962  -3.0194  -1.7082
    -0.4110  -0.0936   0.7427   1.1870   1.6052   2.1449   2.4778   2.9118
     3.4031   3.7212

          k = 0.0625 0.4691 0.0000 (  5501 PWs)   bands (ev):

    -6.8596  -5.0147  -4.6573  -4.0338  -3.3963  -3.0367  -2.0570  -1.1785
    -0.6788  -0.4898  -0.2976   0.2769   0.9517   1.1685   1.6912   1.9194
     2.5540   3.2451

          k = 0.0625 0.5413 0.0000 (  5499 PWs)   bands (ev):

    -6.1761  -3.7540  -3.3976  -2.8781  -2.7150  -2.2735  -2.0418  -1.8701
    -1.4235  -1.2689  -0.8663  -0.4156   0.3547   0.8763   1.0936   2.1007
     2.2216   2.9596

          k = 0.1250 0.2165 0.0000 (  5513 PWs)   bands (ev):

    -9.2835  -7.9013  -7.5428  -6.9134  -6.1990  -5.6777  -4.7206  -3.3950
    -2.0559  -1.1479   0.1992   1.7633   3.4500   4.2671   5.2925   6.2320
     6.4753   6.5687

          k = 0.1250 0.2887 0.0000 (  5487 PWs)   bands (ev):

    -8.6872  -7.2427  -6.8847  -6.2569  -5.5496  -5.0467  -4.0843  -2.7602
    -1.4235  -0.5673   0.6963   2.2162   3.4812   3.8483   4.4835   4.8122
     5.2114   5.3354

          k = 0.1250 0.3608 0.0000 (  5494 PWs)   bands (ev):

    -7.9494  -6.4012  -6.0437  -5.4176  -4.7224  -4.2515  -3.2793  -1.9601
    -0.6338   0.0327   0.9701   1.9949   2.4553   2.8443   3.2605   3.4967
     4.0301   4.2348

          k = 0.1250 0.4330 0.0000 (  5496 PWs)   bands (ev):

    -7.1161  -5.3817  -5.0244  -4.4002  -3.7320  -3.3245  -2.3357  -1.0754
    -0.3332   0.1805   0.4643   0.8412   1.4105   1.6656   2.2084   2.5661
     3.0295   3.4943

          k = 0.1250 0.5052 0.0000 (  5491 PWs)   bands (ev):

    -6.3173  -4.1941  -3.8362  -3.2166  -2.7398  -2.3811  -1.6047  -1.2048
    -1.0283  -0.7812  -0.3928   0.1252   0.7309   1.1421   1.7086   1.9148
     2.5697   3.0607

          k = 0.1250 0.5774 0.0000 (  5460 PWs)   bands (ev):

    -5.9267  -2.9956  -2.8456  -2.6228  -2.4959  -2.2887  -1.8777  -1.8096
    -1.2415  -1.1188  -0.9231  -0.2774   0.4693   0.8013   1.6322   1.7641
     2.8030   2.9401

          k = 0.1875 0.3248 0.0000 (  5509 PWs)   bands (ev):

    -8.0280  -6.4943  -6.1368  -5.5106  -4.8135  -4.3374  -3.3667  -2.0459
    -0.7156   0.0183   1.0784   2.3902   3.2330   3.3961   3.6381   3.9490
     4.1087   4.2808

          k = 0.1875 0.3969 0.0000 (  5493 PWs)   bands (ev):

    -7.2521  -5.5659  -5.2085  -4.5841  -3.9066  -3.4787  -2.4931  -1.1902
     0.0882   0.2431   1.2295   1.6688   2.0808   2.5270   2.6686   2.9261
     3.2682   3.3785

          k = 0.1875 0.4691 0.0000 (  5470 PWs)   bands (ev):

    -6.4401  -4.4638  -4.1062  -3.4845  -2.8749  -2.5329  -1.5451  -0.6680
    -0.1512   0.0283   0.2252   0.7696   1.3894   1.5958   1.9171   2.3882
     2.4339   2.8566

          k = 0.1875 0.5413 0.0000 (  5454 PWs)   bands (ev):

    -5.8185  -3.2100  -2.8535  -2.3479  -2.1727  -1.7397  -1.5057  -1.3299
    -0.9007  -0.7368  -0.3567   0.0857   0.8487   1.2952   1.5179   2.1107
     2.3412   2.5841

          k = 0.2500 0.4330 0.0000 (  5491 PWs)   bands (ev):

    -6.4869  -4.5544  -4.1970  -3.5750  -2.9445  -2.5865  -1.5832  -0.4137
     0.1673   0.8600   1.0167   1.1846   1.3477   1.5304   1.8944   2.2601
     2.3664   2.5640

          k = 0.2500 0.5052 0.0000 (  5430 PWs)   bands (ev):

    -5.7953  -3.3774  -3.0192  -2.4061  -2.0375  -1.5996  -0.8130  -0.4282
    -0.2386  -0.0083   0.3825   0.5241   0.8587   1.0851   1.2659   1.4741
     1.7977   2.1249

          k = 0.2500 0.5774 0.0000 (  5430 PWs)   bands (ev):

    -5.4848  -2.1795  -2.0407  -1.8085  -1.6901  -1.4761  -1.0762  -1.0031
    -0.5334  -0.3296  -0.2475   0.4178   0.6004   1.0129   1.1506   1.2661
     1.5232   1.7667

          k = 0.3125 0.5413 0.0000 (  5411 PWs)   bands (ev):

    -5.3736  -2.1478  -1.7927  -1.4076  -1.1234  -0.8265  -0.6974  -0.5256
    -0.3988  -0.2656  -0.1449   0.2064   0.2442   0.3997   0.6654   0.8962
     1.1059   1.6292

     the Fermi energy is     2.1889 ev

!    total energy              =    -113.24001289 Ry
     Harris-Foulkes estimate   =    -113.24001529 Ry
     estimated scf accuracy    <       0.00000241 Ry

     The total energy is the sum of the following terms:

     one-electron contribution =   -1282.13005071 Ry
     hartree contribution      =     648.94514490 Ry
     xc contribution           =     -91.00372115 Ry
     ewald contribution        =     610.94835859 Ry
     smearing contrib. (-TS)   =       0.00025548 Ry

     convergence has been achieved in   9 iterations

     Forces acting on atoms (Ry/au):


     negative rho (up, down):  1.883E-05 0.000E+00
     atom    1 type  1   force =     0.00000000    0.00000000   -0.00060589
     atom    2 type  1   force =     0.00000000    0.00000000    0.00078587
     atom    3 type  1   force =    -0.00000000   -0.00000000   -0.00196289
     atom    4 type  1   force =     0.00000000   -0.00000000   -0.02566606
     atom    5 type  1   force =     0.00000000    0.00000000   -0.00515273
     atom    6 type  1   force =     0.00000000    0.00000000    0.00083412
     atom    7 type  1   force =     0.00000000   -0.00000000    0.00022143
     atom    8 type  1   force =     0.00000000    0.00000000    0.01195672
     atom    9 type  1   force =     0.00000000    0.00000000   -0.00056975
     atom   10 type  2   force =     0.00000000    0.00000000    0.02015919

     Total force =     0.035222     Total SCF correction =     0.002214


     entering subroutine stress ...


     negative rho (up, down):  1.883E-05 0.000E+00
          total   stress  (Ry/bohr**3)                   (kbar)     P=    7.01
   0.00000523  -0.00000000   0.00000000          0.77     -0.00      0.00
   0.00000000   0.00000523   0.00000000          0.00      0.77      0.00
   0.00000000   0.00000000   0.00013245          0.00      0.00     19.48


     number of scf cycles    =   4
     number of bfgs steps    =   3

     energy   old            =    -113.2364560171 Ry
     energy   new            =    -113.2400128878 Ry

     CASE: energy  _new < energy  _old

     new trust radius        =       0.1003384616 bohr
     new conv_thr            =       0.0000023099 Ry


ATOMIC_POSITIONS (crystal)
Al       0.333333300   0.666666600   0.111018447
Al       0.666666600   0.333333300   0.055685194
Al      -0.000000000  -0.000000000  -0.000216604
Al       0.333333300   0.666666600   0.275072501
Al       0.666666600   0.333333300   0.222076564
Al       0.000000000   0.000000000   0.166771619
Al       0.333333300   0.666666600   0.444259255
Al       0.666666600   0.333333300   0.390050941
Al       0.000000000   0.000000000   0.327000345
H        0.000000000   0.000000000   0.369392754



     Writing output data file Al_111_3_3.save
     NEW-OLD atomic charge density approx. for the potential

     negative rho (up, down):  3.098E-05 0.000E+00

     total cpu time spent up to now is      714.8 secs

     per-process dynamical memory:    97.9 Mb

     Self-consistent Calculation

     iteration #  1     ecut=    30.00 Ry     beta=0.30
     Davidson diagonalization with overlap
     ethr =  1.00E-06,  avg # of iterations =  7.5

     negative rho (up, down):  4.900E-05 0.000E+00

     total cpu time spent up to now is      738.7 secs

     total energy              =    -113.24454476 Ry
     Harris-Foulkes estimate   =    -113.24565896 Ry
     estimated scf accuracy    <       0.03698191 Ry

     iteration #  2     ecut=    30.00 Ry     beta=0.30
     Davidson diagonalization with overlap
     ethr =  1.32E-04,  avg # of iterations =  1.0

     negative rho (up, down):  2.228E-04 0.000E+00

     total cpu time spent up to now is      749.7 secs

     total energy              =    -113.24229695 Ry
     Harris-Foulkes estimate   =    -113.24466419 Ry
     estimated scf accuracy    <       0.02120047 Ry

     iteration #  3     ecut=    30.00 Ry     beta=0.30
     Davidson diagonalization with overlap
     ethr =  7.57E-05,  avg # of iterations =  1.6

     negative rho (up, down):  2.201E-04 0.000E+00

     total cpu time spent up to now is      761.5 secs

     total energy              =    -113.24360848 Ry
     Harris-Foulkes estimate   =    -113.24362546 Ry
     estimated scf accuracy    <       0.00060539 Ry

     iteration #  4     ecut=    30.00 Ry     beta=0.30
     Davidson diagonalization with overlap
     ethr =  2.16E-06,  avg # of iterations =  4.8

     negative rho (up, down):  2.180E-04 0.000E+00

     total cpu time spent up to now is      772.4 secs

     total energy              =    -113.24363877 Ry
     Harris-Foulkes estimate   =    -113.24364061 Ry
     estimated scf accuracy    <       0.00048892 Ry

     iteration #  5     ecut=    30.00 Ry     beta=0.30
     Davidson diagonalization with overlap
     ethr =  1.75E-06,  avg # of iterations =  1.0

     negative rho (up, down):  2.489E-04 0.000E+00

     total cpu time spent up to now is      782.3 secs

     total energy              =    -113.24359832 Ry
     Harris-Foulkes estimate   =    -113.24364016 Ry
     estimated scf accuracy    <       0.00048123 Ry

     iteration #  6     ecut=    30.00 Ry     beta=0.30
     Davidson diagonalization with overlap
     ethr =  1.72E-06,  avg # of iterations =  1.5

     negative rho (up, down):  2.465E-04 0.000E+00

     total cpu time spent up to now is      791.0 secs

     total energy              =    -113.24360931 Ry
     Harris-Foulkes estimate   =    -113.24363063 Ry
     estimated scf accuracy    <       0.00015046 Ry

     iteration #  7     ecut=    30.00 Ry     beta=0.30
     Davidson diagonalization with overlap
     ethr =  5.37E-07,  avg # of iterations =  2.2

     negative rho (up, down):  2.449E-04 0.000E+00

     total cpu time spent up to now is      800.1 secs

     total energy              =    -113.24365549 Ry
     Harris-Foulkes estimate   =    -113.24362679 Ry
     estimated scf accuracy    <       0.00027240 Ry

     iteration #  8     ecut=    30.00 Ry     beta=0.30
     Davidson diagonalization with overlap
     ethr =  5.37E-07,  avg # of iterations =  1.7

     negative rho (up, down):  2.561E-04 0.000E+00

     total cpu time spent up to now is      809.3 secs

     total energy              =    -113.24362131 Ry
     Harris-Foulkes estimate   =    -113.24366576 Ry
     estimated scf accuracy    <       0.00090555 Ry

     iteration #  9     ecut=    30.00 Ry     beta=0.30
     Davidson diagonalization with overlap
     ethr =  5.37E-07,  avg # of iterations =  1.2

     negative rho (up, down):  2.676E-04 0.000E+00

     total cpu time spent up to now is      818.4 secs

     total energy              =    -113.24360432 Ry
     Harris-Foulkes estimate   =    -113.24362808 Ry
     estimated scf accuracy    <       0.00040279 Ry

     iteration # 10     ecut=    30.00 Ry     beta=0.30
     Davidson diagonalization with overlap
     ethr =  5.37E-07,  avg # of iterations =  1.7

     negative rho (up, down):  2.500E-04 0.000E+00

     total cpu time spent up to now is      828.2 secs

     total energy              =    -113.24360062 Ry
     Harris-Foulkes estimate   =    -113.24361213 Ry
     estimated scf accuracy    <       0.00007358 Ry

     iteration # 11     ecut=    30.00 Ry     beta=0.30
     Davidson diagonalization with overlap
     ethr =  2.63E-07,  avg # of iterations =  2.3

     negative rho (up, down):  2.149E-04 0.000E+00

     total cpu time spent up to now is      838.2 secs

     total energy              =    -113.24361070 Ry
     Harris-Foulkes estimate   =    -113.24361256 Ry
     estimated scf accuracy    <       0.00004959 Ry

[...]

    -4.7535  -3.0165  -2.6601  -2.0590  -1.9913  -1.5781  -1.3407  -1.1783
    -0.7291  -0.6201  -0.3050   0.1845   0.9673   1.2890   1.5724   2.3220
     2.4218   2.7019

          k = 0.2500 0.4330 0.0000 (  5491 PWs)   bands (ev):

    -5.5201  -4.3922  -4.0255  -3.4128  -2.8337  -2.4338  -1.5271  -0.3543
     0.4643   0.8480   1.3458   1.3576   1.5357   1.7332   2.0213   2.3376
     2.4358   2.6746

          k = 0.2500 0.5052 0.0000 (  5430 PWs)   bands (ev):

    -4.7448  -3.1977  -2.8374  -2.2295  -1.8719  -1.4247  -0.5731  -0.2821
    -0.0244   0.0989   0.4686   0.7992   1.0794   1.2348   1.3928   1.5242
     1.9444   2.2183

          k = 0.2500 0.5774 0.0000 (  5430 PWs)   bands (ev):

    -4.3753  -1.8450  -1.8407  -1.5563  -1.5197  -1.3598  -0.9230  -0.8376
    -0.4492  -0.1934  -0.1118   0.5610   0.9279   1.1712   1.2841   1.3751
     1.7078   1.8403

          k = 0.3125 0.5413 0.0000 (  5411 PWs)   bands (ev):

    -4.2528  -1.9275  -1.5818  -1.1227  -0.9809  -0.5192  -0.4953  -0.3128
    -0.2208  -0.1191  -0.0333   0.3798   0.4386   0.5000   0.7619   1.0130
     1.2554   1.6959

     the Fermi energy is     2.2266 ev

!    total energy              =    -113.25403323 Ry
     Harris-Foulkes estimate   =    -113.25403326 Ry
     estimated scf accuracy    <       0.00000004 Ry

     The total energy is the sum of the following terms:

     one-electron contribution =   -1177.67257656 Ry
     hartree contribution      =     596.75430929 Ry
     xc contribution           =     -90.83425620 Ry
     ewald contribution        =     558.49875651 Ry
     smearing contrib. (-TS)   =      -0.00026628 Ry

     convergence has been achieved in   7 iterations

     Forces acting on atoms (Ry/au):


     negative rho (up, down):  1.584E-05 0.000E+00
     atom    1 type  1   force =     0.00000000    0.00000000    0.00024624
     atom    2 type  1   force =     0.00000000    0.00000000   -0.00088582
     atom    3 type  1   force =     0.00000000    0.00000000    0.00071141
     atom    4 type  1   force =     0.00000000    0.00000000   -0.00038086
     atom    5 type  1   force =     0.00000000    0.00000000    0.00021328
     atom    6 type  1   force =    -0.00000000   -0.00000000   -0.00061055
     atom    7 type  1   force =     0.00000000    0.00000000   -0.00059741
     atom    8 type  1   force =     0.00000000    0.00000000    0.00019769
     atom    9 type  1   force =    -0.00000000   -0.00000000    0.00118469
     atom   10 type  2   force =     0.00000000   -0.00000000   -0.00007868

     Total force =     0.001929     Total SCF correction =     0.000310
     SCF correction compared to forces is large: reduce conv_thr to get better values


     entering subroutine stress ...


     negative rho (up, down):  1.584E-05 0.000E+00
          total   stress  (Ry/bohr**3)                   (kbar)     P=   -6.45
  -0.00005411   0.00000000   0.00000000         -7.96      0.00      0.00
   0.00000000  -0.00005411   0.00000000          0.00     -7.96      0.00
   0.00000000  -0.00000000  -0.00002336          0.00     -0.00     -3.44


     number of scf cycles    =  31
     number of bfgs steps    =  30

     energy   old            =    -113.2540244678 Ry
     energy   new            =    -113.2540332290 Ry

     CASE: energy  _new < energy  _old

     new trust radius        =       0.0069562032 bohr
     new conv_thr            =       0.0000000900 Ry


ATOMIC_POSITIONS (crystal)
Al       0.333333300   0.666666600   0.105437621
Al       0.666666600   0.333333300   0.049977105
Al      -0.000000000  -0.000000000  -0.006237559
Al       0.333333300   0.666666600   0.272535497
Al       0.666666600   0.333333300   0.217289613
Al       0.000000000   0.000000000   0.161483508
Al       0.333333300   0.666666600   0.455252133
Al       0.666666600   0.333333300   0.400536160
Al      -0.000000000  -0.000000000   0.328619041
H       -0.000000000  -0.000000000   0.376217898



     Writing output data file Al_111_3_3.save
     NEW-OLD atomic charge density approx. for the potential

     negative rho (up, down):  1.580E-05 0.000E+00

     total cpu time spent up to now is     4400.1 secs

     per-process dynamical memory:    97.9 Mb

     Self-consistent Calculation

     iteration #  1     ecut=    30.00 Ry     beta=0.30
     Davidson diagonalization with overlap
     ethr =  1.00E-06,  avg # of iterations =  2.0

     negative rho (up, down):  1.441E-05 0.000E+00

     total cpu time spent up to now is     4411.9 secs

     total energy              =    -113.25404012 Ry
     Harris-Foulkes estimate   =    -113.25404111 Ry
     estimated scf accuracy    <       0.00006773 Ry

     iteration #  2     ecut=    30.00 Ry     beta=0.30
     Davidson diagonalization with overlap
     ethr =  2.42E-07,  avg # of iterations =  1.2

     negative rho (up, down):  1.081E-05 0.000E+00

     total cpu time spent up to now is     4421.1 secs

     total energy              =    -113.25403879 Ry
     Harris-Foulkes estimate   =    -113.25404147 Ry
     estimated scf accuracy    <       0.00004167 Ry

     iteration #  3     ecut=    30.00 Ry     beta=0.30
     Davidson diagonalization with overlap
     ethr =  1.49E-07,  avg # of iterations =  1.3

     negative rho (up, down):  1.015E-05 0.000E+00

     total cpu time spent up to now is     4430.0 secs

     total energy              =    -113.25404005 Ry
     Harris-Foulkes estimate   =    -113.25404010 Ry
     estimated scf accuracy    <       0.00000082 Ry

     iteration #  4     ecut=    30.00 Ry     beta=0.30
     Davidson diagonalization with overlap
     ethr =  2.92E-09,  avg # of iterations =  3.6

     negative rho (up, down):  1.013E-05 0.000E+00

     total cpu time spent up to now is     4441.2 secs

     total energy              =    -113.25404035 Ry
     Harris-Foulkes estimate   =    -113.25404036 Ry
     estimated scf accuracy    <       0.00000235 Ry

     iteration #  5     ecut=    30.00 Ry     beta=0.30
     Davidson diagonalization with overlap
     ethr =  2.92E-09,  avg # of iterations =  1.0

     negative rho (up, down):  1.013E-05 0.000E+00

     total cpu time spent up to now is     4451.5 secs

     total energy              =    -113.25404031 Ry
     Harris-Foulkes estimate   =    -113.25404036 Ry
     estimated scf accuracy    <       0.00000244 Ry

     iteration #  6     ecut=    30.00 Ry     beta=0.30
     Davidson diagonalization with overlap
     ethr =  2.92E-09,  avg # of iterations =  1.0

     negative rho (up, down):  1.030E-05 0.000E+00

     total cpu time spent up to now is     4460.1 secs

     total energy              =    -113.25404024 Ry
     Harris-Foulkes estimate   =    -113.25404032 Ry
     estimated scf accuracy    <       0.00000117 Ry

     iteration #  7     ecut=    30.00 Ry     beta=0.30
     Davidson diagonalization with overlap
     ethr =  2.92E-09,  avg # of iterations =  1.6

     negative rho (up, down):  1.042E-05 0.000E+00

     total cpu time spent up to now is     4469.8 secs

     total energy              =    -113.25404029 Ry
     Harris-Foulkes estimate   =    -113.25404030 Ry
     estimated scf accuracy    <       0.00000035 Ry

     iteration #  8     ecut=    30.00 Ry     beta=0.30
     Davidson diagonalization with overlap
     ethr =  1.25E-09,  avg # of iterations =  1.0

     negative rho (up, down):  1.108E-05 0.000E+00

     total cpu time spent up to now is     4477.8 secs

     total energy              =    -113.25404028 Ry
     Harris-Foulkes estimate   =    -113.25404029 Ry
     estimated scf accuracy    <       0.00000014 Ry

     iteration #  9     ecut=    30.00 Ry     beta=0.30
     Davidson diagonalization with overlap
     ethr =  5.07E-10,  avg # of iterations =  1.7

     negative rho (up, down):  1.583E-05 0.000E+00

     total cpu time spent up to now is     4485.5 secs

     End of self-consistent calculation

          k = 0.0000 0.0000 0.0000 (  5537 PWs)   bands (ev):

    -9.5332  -8.8948  -8.5171  -7.8940  -7.2057  -6.6476  -5.8200  -4.6227
    -3.2873  -2.2638  -1.1329   0.4495   2.1252   3.4337   4.6542   5.7007
     5.9451   6.4358

          k = 0.0000 0.0722 0.0000 (  5524 PWs)   bands (ev):

    -9.4424  -8.7994  -8.4219  -7.7991  -7.1117  -6.5554  -5.7271  -4.5296
    -3.1942  -2.1749  -1.0456   0.5373   2.2121   3.5155   4.7361   5.7913
     6.0388   6.5244

          k = 0.0000 0.1443 0.0000 (  5500 PWs)   bands (ev):

    -9.1711  -8.5136  -8.1368  -7.5147  -6.8303  -6.2794  -5.4490  -4.2509
    -2.9162  -1.9101  -0.7854   0.7994   2.4710   3.7525   4.9705   6.0577
     6.3148   6.7759

          k = 0.0000 0.2165 0.0000 (  5496 PWs)   bands (ev):

    -8.7229  -8.0387  -7.6628  -7.0421  -6.3628  -5.8219  -4.9874  -3.7884
    -2.4554  -1.4727  -0.3582   1.2294   2.8892   4.0868   5.2362   6.3100
     6.3891   6.7323

          k = 0.0000 0.2887 0.0000 (  5490 PWs)   bands (ev):

    -8.1048  -7.3763  -7.0020  -6.3831  -5.7122  -5.1876  -4.3461  -3.1457
    -1.8172  -0.8753   0.2153   1.7960   3.3402   3.8500   4.3723   4.7279
     5.1174   5.3195

          k = 0.0000 0.3608 0.0000 (  5482 PWs)   bands (ev):

    -7.3317  -6.5292  -6.1572  -5.5406  -4.8836  -4.3859  -3.5319  -2.3304
    -1.0154  -0.1807   0.8113   1.9392   2.3183   2.6527   2.9841   3.3216
     3.8868   4.3170

          k = 0.0000 0.4330 0.0000 (  5488 PWs)   bands (ev):

    -6.4392  -5.5012  -5.1322  -4.5183  -3.8910  -3.4431  -2.5649  -1.3733
    -0.2239  -0.0443   0.3208   0.7089   1.2087   1.4862   2.0304   2.3270
     2.8077   3.3834

          k = 0.0000 0.5052 0.0000 (  5504 PWs)   bands (ev):

    -5.5391  -4.2969  -3.9329  -3.3225  -2.8393  -2.4559  -1.6152  -1.3490
    -1.0825  -0.9356  -0.5618  -0.1206   0.5049   1.0024   1.4072   1.7115
     2.3344   2.8009

          k = 0.0000-0.5774 0.0000 (  5484 PWs)   bands (ev):

    -5.0575  -2.9334  -2.9264  -2.6442  -2.5970  -2.4440  -1.9946  -1.9232
    -1.4111  -1.2522  -1.0853  -0.4416   0.2637   0.6413   1.2789   1.4289
     2.4734   2.7166

          k = 0.0625 0.1083 0.0000 (  5511 PWs)   bands (ev):

    -9.2614  -8.6088  -8.2317  -7.6095  -6.9240  -6.3713  -5.5416  -4.3437
    -3.0086  -1.9981  -0.8718   0.7125   2.3853   3.6755   4.8953   5.9704
     6.2243   6.6966

          k = 0.0625 0.1804 0.0000 (  5519 PWs)   bands (ev):

    -8.9016  -8.2285  -7.8522  -7.2310  -6.5495  -6.0046  -5.1718  -3.9730
    -2.6392  -1.6468  -0.5277   1.0589   2.7254   3.9715   5.1747   6.3077
     6.5639   6.9454

          k = 0.0625 0.2526 0.0000 (  5496 PWs)   bands (ev):

    -8.3681  -7.6598  -7.2848  -6.6652  -5.9904  -5.4584  -4.6201  -3.4202
    -2.0895  -1.1279  -0.0244   1.5637   3.2012   4.2029   5.0762   5.5879
     5.8330   6.1155

          k = 0.0625 0.3248 0.0000 (  5488 PWs)   bands (ev):

    -7.6713  -6.9051  -6.5320  -5.9144  -5.2504  -4.7395  -3.8918  -2.6906
    -1.3672  -0.4672   0.5924   2.1183   3.0778   3.3188   3.7169   4.1780
     4.3189   4.9271

          k = 0.0625 0.3969 0.0000 (  5490 PWs)   bands (ev):

    -6.8340  -5.9675  -5.5971  -4.9819  -4.3377  -3.8631  -2.9978  -1.7973
    -0.5055   0.1174   0.9407   1.3104   1.7290   2.1264   2.4448   3.0219
     3.3550   3.6518

          k = 0.0625 0.4691 0.0000 (  5501 PWs)   bands (ev):

    -5.9175  -4.8510  -4.4845  -3.8724  -3.2840  -2.8786  -1.9824  -0.8859
    -0.5208  -0.4068  -0.1915   0.3599   0.9168   1.2482   1.7121   2.0155
     2.5552   3.0036

          k = 0.0625 0.5413 0.0000 (  5499 PWs)   bands (ev):

    -5.1439  -3.5623  -3.2047  -2.6005  -2.5103  -2.1150  -1.8791  -1.7186
    -1.2493  -1.1543  -0.8136  -0.3313   0.4633   0.8160   1.1253   1.9972
     2.1141   2.9148

          k = 0.1250 0.2165 0.0000 (  5513 PWs)   bands (ev):

    -8.4563  -7.7544  -7.3792  -6.7593  -6.0834  -5.5490  -4.7117  -3.5120
    -2.1806  -1.2131  -0.1059   1.4833   3.1341   4.2499   5.3250   6.2640
     6.5373   6.8803

          k = 0.1250 0.2887 0.0000 (  5487 PWs)   bands (ev):

    -7.8431  -7.0933  -6.7198  -6.1017  -5.4346  -4.9176  -4.0726  -2.8717
    -1.5456  -0.6229   0.4572   2.0377   3.5771   3.9530   4.5706   4.9637
     5.2352   5.4890

          k = 0.1250 0.3608 0.0000 (  5494 PWs)   bands (ev):

    -7.0779  -6.2480  -5.8768  -5.2609  -4.6090  -4.1204  -3.2619  -2.0600
    -0.7487   0.0519   1.0366   2.1842   2.5685   2.9017   3.2204   3.5592
     4.1075   4.3782

          k = 0.1250 0.4330 0.0000 (  5496 PWs)   bands (ev):

    -6.1985  -5.2220  -4.8539  -4.2408  -3.6215  -3.1836  -2.2993  -1.1090
     0.0190   0.1988   0.5858   0.9658   1.4669   1.7444   2.2743   2.5376
     3.0480   3.5490

          k = 0.1250 0.5052 0.0000 (  5491 PWs)   bands (ev):

    -5.3215  -4.0200  -3.6572  -3.0479  -2.5846  -2.1942  -1.3506  -1.0786
    -0.8139  -0.6695  -0.2978   0.1384   0.7698   1.2378   1.6534   1.9378
     2.5751   3.0060

          k = 0.1250 0.5774 0.0000 (  5460 PWs)   bands (ev):

    -4.8621  -2.6589  -2.6527  -2.3704  -2.3259  -2.1700  -1.7250  -1.6494
    -1.1528  -0.9845  -0.8307  -0.1807   0.5213   0.9020   1.5260   1.6756
     2.6979   2.8938

          k = 0.1875 0.3248 0.0000 (  5509 PWs)   bands (ev):

    -7.1602  -6.3417  -5.9702  -5.3541  -4.6999  -4.2070  -3.3504  -2.1484
    -0.8330   0.0026   1.0270   2.5029   3.3626   3.5663   3.8124   4.1090
     4.2696   4.3459

          k = 0.1875 0.3969 0.0000 (  5493 PWs)   bands (ev):

    -6.3458  -5.4079  -5.0391  -4.4254  -3.7957  -3.3427  -2.4655  -1.2660
     0.0109   0.4927   1.4041   1.8193   2.2285   2.5903   2.8961   3.0756
     3.3599   3.5290

          k = 0.1875 0.4691 0.0000 (  5470 PWs)   bands (ev):

    -5.4696  -4.2959  -3.9311  -3.3208  -2.7626  -2.3703  -1.4614  -0.3745
    -0.0045   0.1135   0.3355   0.8647   1.4047   1.6834   2.0676   2.4751
     2.6855   2.9652

          k = 0.1875 0.5413 0.0000 (  5454 PWs)   bands (ev):

    -4.7588  -3.0124  -2.6578  -2.0585  -1.9927  -1.5743  -1.3409  -1.1762
    -0.7299  -0.6193  -0.3045   0.1845   0.9671   1.2889   1.5729   2.3211
     2.4219   2.7028

          k = 0.2500 0.4330 0.0000 (  5491 PWs)   bands (ev):

    -5.5248  -4.3881  -4.0230  -3.4123  -2.8357  -2.4335  -1.5256  -0.3538
     0.4613   0.8468   1.3500   1.3610   1.5364   1.7341   2.0221   2.3379
     2.4352   2.6746

          k = 0.2500 0.5052 0.0000 (  5430 PWs)   bands (ev):

    -4.7500  -3.1936  -2.8349  -2.2290  -1.8738  -1.4244  -0.5725  -0.2783
    -0.0240   0.1001   0.4693   0.7989   1.0827   1.2341   1.3947   1.5236
     1.9442   2.2182

          k = 0.2500 0.5774 0.0000 (  5430 PWs)   bands (ev):

    -4.3809  -1.8411  -1.8367  -1.5563  -1.5176  -1.3582  -0.9224  -0.8372
    -0.4510  -0.1939  -0.1110   0.5615   0.9303   1.1718   1.2846   1.3766
     1.7078   1.8396

          k = 0.3125 0.5413 0.0000 (  5411 PWs)   bands (ev):

    -4.2585  -1.9234  -1.5796  -1.1239  -0.9804  -0.5154  -0.4913  -0.3131
    -0.2204  -0.1177  -0.0314   0.3796   0.4392   0.5005   0.7617   1.0122
     1.2547   1.6965

     the Fermi energy is     2.2262 ev

!    total energy              =    -113.25404028 Ry
     Harris-Foulkes estimate   =    -113.25404029 Ry
     estimated scf accuracy    <       0.00000002 Ry

     The total energy is the sum of the following terms:

     one-electron contribution =   -1177.10333498 Ry
     hartree contribution      =     596.47264402 Ry
     xc contribution           =     -90.83341130 Ry
     ewald contribution        =     558.21032537 Ry
     smearing contrib. (-TS)   =      -0.00026339 Ry

     convergence has been achieved in   9 iterations

     Forces acting on atoms (Ry/au):


     negative rho (up, down):  1.583E-05 0.000E+00
     atom    1 type  1   force =     0.00000000    0.00000000    0.00004390
     atom    2 type  1   force =     0.00000000    0.00000000   -0.00059907
     atom    3 type  1   force =     0.00000000    0.00000000    0.00062192
     atom    4 type  1   force =     0.00000000    0.00000000   -0.00058538
     atom    5 type  1   force =     0.00000000    0.00000000    0.00016229
     atom    6 type  1   force =    -0.00000000   -0.00000000   -0.00029935
     atom    7 type  1   force =     0.00000000   -0.00000000   -0.00064126
     atom    8 type  1   force =     0.00000000    0.00000000    0.00023835
     atom    9 type  1   force =    -0.00000000   -0.00000000    0.00094992
     atom   10 type  2   force =     0.00000000    0.00000000    0.00010868

     Total force =     0.001609     Total SCF correction =     0.000166
     SCF correction compared to forces is large: reduce conv_thr to get better values


     entering subroutine stress ...


     negative rho (up, down):  1.583E-05 0.000E+00
          total   stress  (Ry/bohr**3)                   (kbar)     P=   -6.53
  -0.00005443   0.00000000   0.00000000         -8.01      0.00      0.00
   0.00000000  -0.00005443  -0.00000000          0.00     -8.01     -0.00
   0.00000000   0.00000000  -0.00002434          0.00      0.00     -3.58


     bfgs converged in  32 scf cycles and  31 bfgs steps
     (criteria: energy <  1.0E-04, force <  1.0E-03)

     End of BFGS Geometry Optimization

     Final energy   =    -113.2540402759 Ry
Begin final coordinates

ATOMIC_POSITIONS (crystal)
Al       0.333333300   0.666666600   0.105437621
Al       0.666666600   0.333333300   0.049977105
Al      -0.000000000  -0.000000000  -0.006237559
Al       0.333333300   0.666666600   0.272535497
Al       0.666666600   0.333333300   0.217289613
Al       0.000000000   0.000000000   0.161483508
Al       0.333333300   0.666666600   0.455252133
Al       0.666666600   0.333333300   0.400536160
Al      -0.000000000  -0.000000000   0.328619041
H       -0.000000000  -0.000000000   0.376217898
End final coordinates



     Writing output data file Al_111_3_3.save

     init_run     :      5.92s CPU      7.72s WALL (       1 calls)
     electrons    :   2685.93s CPU   4247.87s WALL (      32 calls)
     update_pot   :     18.82s CPU     19.67s WALL (      31 calls)
     forces       :     66.93s CPU     69.12s WALL (      32 calls)
     stress       :    134.12s CPU    138.61s WALL (      32 calls)

     Called by init_run:
     wfcinit      :      4.88s CPU      6.65s WALL (       1 calls)
     potinit      :      0.28s CPU      0.29s WALL (       1 calls)

     Called by electrons:
     c_bands      :   1990.63s CPU   3097.99s WALL (     402 calls)
     sum_band     :    242.31s CPU    480.53s WALL (     402 calls)
     v_of_rho     :     67.59s CPU     73.73s WALL (     434 calls)
     newd         :     45.62s CPU     46.86s WALL (     434 calls)
     mix_rho      :    343.44s CPU    551.73s WALL (     402 calls)

     Called by c_bands:
     init_us_2    :     48.54s CPU     64.12s WALL (   26070 calls)
     cegterg      :   1939.17s CPU   3031.46s WALL (   12060 calls)

     Called by *egterg:
     h_psi        :    824.79s CPU   1820.81s WALL (   37620 calls)
     s_psi        :    250.74s CPU    273.33s WALL (   37620 calls)
     g_psi        :      8.37s CPU     11.43s WALL (   25530 calls)
     cdiaghg      :     31.58s CPU     41.44s WALL (   36660 calls)

     Called by h_psi:
     add_vuspsi   :    253.93s CPU    272.83s WALL (   37620 calls)

     General routines
     calbec       :    377.39s CPU    440.86s WALL (   51600 calls)
     fft          :     34.95s CPU     44.74s WALL (    7647 calls)
     ffts         :    143.48s CPU    270.78s WALL (  148202 calls)
     fftw         :    303.30s CPU   1227.15s WALL ( 1246144 calls)
     interpolate  :      4.81s CPU      7.24s WALL (     836 calls)
     davcio       :      0.00s CPU      0.04s WALL (      30 calls)

     Parallel routines
     fft_scatter  :     70.61s CPU    224.46s WALL ( 1401993 calls)

     PWSCF        :     0h48m CPU        1h14m WALL


   This run was terminated on:  22:29:19   4Jun2020            

=------------------------------------------------------------------------------=
   JOB DONE.
=------------------------------------------------------------------------------=
