
     Program PWSCF v.6.4.1 starts on  7Jun2020 at  6:17:30 

     This program is part of the open-source Quantum ESPRESSO suite
     for quantum simulation of materials; please cite
         "P. Giannozzi et al., J. Phys.:Condens. Matter 21 395502 (2009);
         "P. Giannozzi et al., J. Phys.:Condens. Matter 29 465901 (2017);
          URL http://www.quantum-espresso.org", 
     in publications or presentations arising from this work. More details at
     http://www.quantum-espresso.org/quote

     Parallel version (MPI), running on     1 processors

     MPI processes distributed on     1 nodes
     Reading input from Al_111_H4_A_site_rd_1.pw.in

     Current dimensions of program PWSCF are:
     Max number of different atomic species (ntypx) = 10
     Max number of k-points (npk) =  40000
     Max angular momentum in pseudopotentials (lmaxx) =  3
               file H.pbe-rrkjus.UPF: wavefunction(s)  1S renormalized

     Subspace diagonalization in iterative solution of the eigenvalue problem:
     a serial algorithm will be used


     G-vector sticks info
     --------------------
     sticks:   dense  smooth     PW     G-vecs:    dense   smooth      PW
     Sum        1189     955    271               490481   351617   53557



     bravais-lattice index     =            4
     lattice parameter (alat)  =      10.7520  a.u.
     unit-cell volume          =   15820.6847 (a.u.)^3
     number of atoms/cell      =           37
     number of atomic types    =            2
     number of electrons       =       109.00
     number of Kohn-Sham states=           66
     kinetic-energy cutoff     =      30.0000  Ry
     charge density cutoff     =     150.0000  Ry
     convergence threshold     =      3.6E-05
     mixing beta               =       0.3000
     number of iterations used =            8  local-TF  mixing
     Exchange-correlation      =  SLA  PW   PBE  PBE ( 1  4  3  4 0 0)
     nstep                     =           50


     celldm(1)=  10.752000  celldm(2)=   0.000000  celldm(3)=  14.696938
     celldm(4)=   0.000000  celldm(5)=   0.000000  celldm(6)=   0.000000

     crystal axes: (cart. coord. in units of alat)
               a(1) = (   1.000000   0.000000   0.000000 )  
               a(2) = (  -0.500000   0.866025   0.000000 )  
               a(3) = (   0.000000   0.000000  14.696938 )  

     reciprocal axes: (cart. coord. in units 2 pi/alat)
               b(1) = (  1.000000  0.577350 -0.000000 )  
               b(2) = (  0.000000  1.154701  0.000000 )  
               b(3) = (  0.000000 -0.000000  0.068041 )  


     PseudoPot. # 1 for Al read from file:
     ./Al.pbe-n-van.UPF
     MD5 check sum: b11ded24487aef5bc42d5c7a2e22a7b6
     Pseudo is Ultrasoft + core correction, Zval =  3.0
     Generated by new atomic code, or converted to UPF format
     Using radial grid of  893 points,  2 beta functions with: 
                l(1) =   0
                l(2) =   1
     Q(r) pseudized with  8 coefficients,  rinner =    0.900   0.900   0.900


     PseudoPot. # 2 for H  read from file:
     ./H.pbe-rrkjus.UPF
     MD5 check sum: 0433647300470310da31d564c103eed6
     Pseudo is Ultrasoft, Zval =  1.0
     Generated by new atomic code, or converted to UPF format
     Using radial grid of 1061 points,  2 beta functions with: 
                l(1) =   0
                l(2) =   0
     Q(r) pseudized with 0 coefficients 


     atomic species   valence    mass     pseudopotential
        Al             3.00    26.98000     Al( 1.00)
        H              1.00     1.00790     H ( 1.00)

      6 Sym. Ops. (no inversion) found



   Cartesian axes

     site n.     atom                  positions (alat units)
         1           Al  tau(   1) = (   0.2500065   0.1443410   0.8165186  )
         2           Al  tau(   2) = (   0.0000002   0.5773501   0.8165166  )
         3           Al  tau(   3) = (   0.7499940   0.1443410   0.8165186  )
         4           Al  tau(   4) = (   0.5000002   0.5773429   0.8165186  )
         5           Al  tau(   5) = (   0.0000000   0.0000000   0.0003899  )
         6           Al  tau(   6) = (  -0.2500043   0.4330102   0.0003894  )
         7           Al  tau(   7) = (   0.5000000   0.0000049   0.0003894  )
         8           Al  tau(   8) = (   0.2500043   0.4330102   0.0003894  )
         9           Al  tau(   9) = (  -0.0000003   0.2886740   1.6329930  )
        10           Al  tau(  10) = (  -0.2500013   0.7216886   1.6329930  )
        11           Al  tau(  11) = (   0.4999998   0.2886753   1.6329935  )
        12           Al  tau(  12) = (   0.2500008   0.7216886   1.6329930  )
        13           Al  tau(  13) = (   0.2500293   0.1443542   3.2659929  )
        14           Al  tau(  14) = (   0.0000002   0.5773501   3.2659851  )
        15           Al  tau(  15) = (   0.7499712   0.1443542   3.2659929  )
        16           Al  tau(  16) = (   0.5000002   0.5773166   3.2659929  )
        17           Al  tau(  17) = (   0.0000000   0.0000000   2.4495033  )
        18           Al  tau(  18) = (  -0.2500008   0.4330122   2.4494963  )
        19           Al  tau(  19) = (   0.5000000   0.0000010   2.4494963  )
        20           Al  tau(  20) = (   0.2500008   0.4330122   2.4494963  )
        21           Al  tau(  21) = (  -0.0000003   0.2885886   4.0824810  )
        22           Al  tau(  22) = (  -0.2500754   0.7217313   4.0824810  )
        23           Al  tau(  23) = (   0.4999998   0.2886753   4.0825503  )
        24           Al  tau(  24) = (   0.2500749   0.7217313   4.0824810  )
        25           Al  tau(  25) = (   0.2498177   0.1442320   5.7148707  )
        26           Al  tau(  26) = (   0.0000002   0.5773501   5.7152857  )
        27           Al  tau(  27) = (   0.7501828   0.1442320   5.7148707  )
        28           Al  tau(  28) = (   0.5000002   0.5775609   5.7148707  )
        29           Al  tau(  29) = (   0.0000000   0.0000000   4.9026483  )
        30           Al  tau(  30) = (  -0.2500079   0.4330081   4.8989558  )
        31           Al  tau(  31) = (   0.5000000   0.0000091   4.8989558  )
        32           Al  tau(  32) = (   0.2500079   0.4330081   4.8989558  )
        33           Al  tau(  33) = (  -0.0000003   0.2885318   6.5315805  )
        34           Al  tau(  34) = (  -0.2501245   0.7217597   6.5315805  )
        35           Al  tau(  35) = (   0.4999998   0.2886753   6.5315368  )
        36           Al  tau(  36) = (   0.2501240   0.7217597   6.5315805  )
        37           H   tau(  37) = (   0.0000000   0.0000000   5.3054901  )

     number of k points=    44  Marzari-Vanderbilt smearing, width (Ry)=  0.0250
                       cart. coord. in units 2pi/alat
        k(    1) = (   0.0000000   0.0000000   0.0000000), wk =   0.0050000
        k(    2) = (   0.0000000   0.0577350   0.0000000), wk =   0.0300000
        k(    3) = (   0.0000000   0.1154701   0.0000000), wk =   0.0300000
        k(    4) = (   0.0000000   0.1732051   0.0000000), wk =   0.0300000
        k(    5) = (   0.0000000   0.2309401   0.0000000), wk =   0.0300000
        k(    6) = (   0.0000000   0.2886751   0.0000000), wk =   0.0300000
        k(    7) = (   0.0000000   0.3464102   0.0000000), wk =   0.0300000
        k(    8) = (   0.0000000   0.4041452   0.0000000), wk =   0.0300000
        k(    9) = (   0.0000000   0.4618802   0.0000000), wk =   0.0300000
        k(   10) = (   0.0000000   0.5196152   0.0000000), wk =   0.0300000
        k(   11) = (   0.0000000  -0.5773503   0.0000000), wk =   0.0150000
        k(   12) = (   0.0500000   0.0866025   0.0000000), wk =   0.0300000
        k(   13) = (   0.0500000   0.1443376   0.0000000), wk =   0.0600000
        k(   14) = (   0.0500000   0.2020726   0.0000000), wk =   0.0600000
        k(   15) = (   0.0500000   0.2598076   0.0000000), wk =   0.0600000
        k(   16) = (   0.0500000   0.3175426   0.0000000), wk =   0.0600000
        k(   17) = (   0.0500000   0.3752777   0.0000000), wk =   0.0600000
        k(   18) = (   0.0500000   0.4330127   0.0000000), wk =   0.0600000
        k(   19) = (   0.0500000   0.4907477   0.0000000), wk =   0.0600000
        k(   20) = (   0.0500000   0.5484828   0.0000000), wk =   0.0600000
        k(   21) = (   0.1000000   0.1732051   0.0000000), wk =   0.0300000
        k(   22) = (   0.1000000   0.2309401   0.0000000), wk =   0.0600000
        k(   23) = (   0.1000000   0.2886751   0.0000000), wk =   0.0600000
        k(   24) = (   0.1000000   0.3464102   0.0000000), wk =   0.0600000
        k(   25) = (   0.1000000   0.4041452   0.0000000), wk =   0.0600000
        k(   26) = (   0.1000000   0.4618802   0.0000000), wk =   0.0600000
        k(   27) = (   0.1000000   0.5196152   0.0000000), wk =   0.0600000
        k(   28) = (   0.1000000   0.5773503   0.0000000), wk =   0.0300000
        k(   29) = (   0.1500000   0.2598076   0.0000000), wk =   0.0300000
        k(   30) = (   0.1500000   0.3175426   0.0000000), wk =   0.0600000
        k(   31) = (   0.1500000   0.3752777   0.0000000), wk =   0.0600000
        k(   32) = (   0.1500000   0.4330127   0.0000000), wk =   0.0600000
        k(   33) = (   0.1500000   0.4907477   0.0000000), wk =   0.0600000
        k(   34) = (   0.1500000   0.5484828   0.0000000), wk =   0.0600000
        k(   35) = (   0.2000000   0.3464102   0.0000000), wk =   0.0300000
        k(   36) = (   0.2000000   0.4041452   0.0000000), wk =   0.0600000
        k(   37) = (   0.2000000   0.4618802   0.0000000), wk =   0.0600000
        k(   38) = (   0.2000000   0.5196152   0.0000000), wk =   0.0600000
        k(   39) = (   0.2000000   0.5773503   0.0000000), wk =   0.0300000
        k(   40) = (   0.2500000   0.4330127   0.0000000), wk =   0.0300000
        k(   41) = (   0.2500000   0.4907477   0.0000000), wk =   0.0600000
        k(   42) = (   0.2500000   0.5484828   0.0000000), wk =   0.0600000
        k(   43) = (   0.3000000   0.5196152   0.0000000), wk =   0.0300000
        k(   44) = (   0.3000000   0.5773503   0.0000000), wk =   0.0300000

     Dense  grid:   490481 G-vectors     FFT dimensions: (  45,  45, 625)

     Smooth grid:   351617 G-vectors     FFT dimensions: (  40,  40, 576)

     Estimated max dynamical RAM per process >       3.26 GB

     Initial potential from superposition of free atoms

     starting charge  108.81504, renormalised to  109.00000

     negative rho (up, down):  2.536E-04 0.000E+00
     Starting wfcs are  145 randomized atomic wfcs

     total cpu time spent up to now is     1877.7 secs

     Self-consistent Calculation

     iteration #  1     ecut=    30.00 Ry     beta= 0.30
     Davidson diagonalization with overlap
     ethr =  1.00E-02,  avg # of iterations =  2.8

     negative rho (up, down):  4.662E-04 0.000E+00

     total cpu time spent up to now is     5022.8 secs

     total energy              =    -449.47213436 Ry
     Harris-Foulkes estimate   =    -451.61583614 Ry
     estimated scf accuracy    <     989.00886726 Ry

     iteration #  2     ecut=    30.00 Ry     beta= 0.30
     Davidson diagonalization with overlap
     ethr =  1.00E-02,  avg # of iterations =  1.0

     negative rho (up, down):  6.922E-03 0.000E+00

     total cpu time spent up to now is     7003.6 secs

     total energy              =    -445.53764214 Ry
     Harris-Foulkes estimate   =    -449.76193944 Ry
     estimated scf accuracy    <     540.52884504 Ry

     iteration #  3     ecut=    30.00 Ry     beta= 0.30
     Davidson diagonalization with overlap
     ethr =  1.00E-02,  avg # of iterations =  3.2

     negative rho (up, down):  2.602E-03 0.000E+00

     total cpu time spent up to now is     9041.9 secs

     total energy              =    -448.49777152 Ry
     Harris-Foulkes estimate   =    -447.34792619 Ry
     estimated scf accuracy    <      73.82142986 Ry

     iteration #  4     ecut=    30.00 Ry     beta= 0.30
     Davidson diagonalization with overlap
     ethr =  1.00E-02,  avg # of iterations =  1.4

     negative rho (up, down):  4.103E-02 0.000E+00

     total cpu time spent up to now is    10988.0 secs

     total energy              =    -443.39957609 Ry
     Harris-Foulkes estimate   =    -449.03644944 Ry
     estimated scf accuracy    <     361.47163588 Ry

     iteration #  5     ecut=    30.00 Ry     beta= 0.30
     Davidson diagonalization with overlap
     c_bands:  2 eigenvalues not converged
     c_bands:  1 eigenvalues not converged
     c_bands:  2 eigenvalues not converged
     c_bands:  2 eigenvalues not converged
     ethr =  1.00E-02,  avg # of iterations = 11.8

     negative rho (up, down):  2.194E-02 0.000E+00

     total cpu time spent up to now is    14555.4 secs

     total energy              =    -448.01045056 Ry
     Harris-Foulkes estimate   =    -450.27827564 Ry
     estimated scf accuracy    <     466.97516239 Ry

     iteration #  6     ecut=    30.00 Ry     beta= 0.30
     Davidson diagonalization with overlap
     ethr =  1.00E-02,  avg # of iterations =  1.3

     negative rho (up, down):  1.690E-02 0.000E+00

     total cpu time spent up to now is    16533.8 secs

     total energy              =    -448.06214030 Ry
     Harris-Foulkes estimate   =    -448.42679559 Ry
     estimated scf accuracy    <     172.12973648 Ry

     iteration #  7     ecut=    30.00 Ry     beta= 0.30
     Davidson diagonalization with overlap
     ethr =  1.00E-02,  avg # of iterations =  1.0

     negative rho (up, down):  1.563E-02 0.000E+00

     total cpu time spent up to now is    18494.8 secs

     total energy              =    -448.04699559 Ry
     Harris-Foulkes estimate   =    -448.12223220 Ry
     estimated scf accuracy    <      97.26589298 Ry

     iteration #  8     ecut=    30.00 Ry     beta= 0.30
     Davidson diagonalization with overlap
     ethr =  1.00E-02,  avg # of iterations =  1.0

     negative rho (up, down):  1.492E-02 0.000E+00

     total cpu time spent up to now is    20448.7 secs

     total energy              =    -447.96610330 Ry
     Harris-Foulkes estimate   =    -448.05439475 Ry
     estimated scf accuracy    <      78.55992283 Ry

     iteration #  9     ecut=    30.00 Ry     beta= 0.30
     Davidson diagonalization with overlap
     ethr =  1.00E-02,  avg # of iterations =  1.0

     negative rho (up, down):  6.266E-03 0.000E+00

     total cpu time spent up to now is    22334.3 secs

     total energy              =    -447.34850451 Ry
     Harris-Foulkes estimate   =    -447.97477250 Ry
     estimated scf accuracy    <      57.61535358 Ry

     iteration # 10     ecut=    30.00 Ry     beta= 0.30
     Davidson diagonalization with overlap
     ethr =  1.00E-02,  avg # of iterations =  1.5

     negative rho (up, down):  5.818E-03 0.000E+00

     total cpu time spent up to now is    24137.9 secs

     total energy              =    -447.80626919 Ry
     Harris-Foulkes estimate   =    -447.79230888 Ry
     estimated scf accuracy    <       6.24639532 Ry

     iteration # 11     ecut=    30.00 Ry     beta= 0.30
     Davidson diagonalization with overlap
     ethr =  5.73E-03,  avg # of iterations =  1.9

     negative rho (up, down):  8.959E-03 0.000E+00

     total cpu time spent up to now is    25987.6 secs

     total energy              =    -447.71849101 Ry
     Harris-Foulkes estimate   =    -447.84294450 Ry
     estimated scf accuracy    <      13.43646548 Ry

     iteration # 12     ecut=    30.00 Ry     beta= 0.30
     Davidson diagonalization with overlap
     ethr =  5.73E-03,  avg # of iterations =  1.2

     negative rho (up, down):  7.080E-03 0.000E+00

     total cpu time spent up to now is    27784.3 secs

     total energy              =    -447.78529997 Ry
     Harris-Foulkes estimate   =    -447.78722564 Ry
     estimated scf accuracy    <       0.09448690 Ry

     iteration # 13     ecut=    30.00 Ry     beta= 0.30
     Davidson diagonalization with overlap
     c_bands:  2 eigenvalues not converged
     ethr =  8.67E-05,  avg # of iterations = 12.4

     negative rho (up, down):  9.517E-03 0.000E+00

     total cpu time spent up to now is    31087.6 secs

     total energy              =    -447.83934028 Ry
     Harris-Foulkes estimate   =    -447.89209630 Ry
     estimated scf accuracy    <      15.70203115 Ry

     iteration # 14     ecut=    30.00 Ry     beta= 0.30
     Davidson diagonalization with overlap
     ethr =  8.67E-05,  avg # of iterations =  4.6

     negative rho (up, down):  9.248E-03 0.000E+00

     total cpu time spent up to now is    33024.5 secs

     total energy              =    -447.86302398 Ry
     Harris-Foulkes estimate   =    -447.86281126 Ry
     estimated scf accuracy    <       3.00976238 Ry

     iteration # 15     ecut=    30.00 Ry     beta= 0.30
     Davidson diagonalization with overlap
     ethr =  8.67E-05,  avg # of iterations =  1.0

     negative rho (up, down):  8.251E-03 0.000E+00

     total cpu time spent up to now is    34801.7 secs

     total energy              =    -447.85752669 Ry
     Harris-Foulkes estimate   =    -447.86316474 Ry
     estimated scf accuracy    <       3.41646220 Ry

     iteration # 16     ecut=    30.00 Ry     beta= 0.30
     Davidson diagonalization with overlap
     ethr =  8.67E-05,  avg # of iterations =  1.0

     negative rho (up, down):  6.903E-03 0.000E+00

     total cpu time spent up to now is    36579.9 secs

     total energy              =    -447.87762959 Ry
     Harris-Foulkes estimate   =    -447.85866955 Ry
     estimated scf accuracy    <       3.04588312 Ry

     iteration # 17     ecut=    30.00 Ry     beta= 0.30
     Davidson diagonalization with overlap
     ethr =  8.67E-05,  avg # of iterations =  2.2

     negative rho (up, down):  7.807E-03 0.000E+00

     total cpu time spent up to now is    38406.0 secs

     total energy              =    -447.87411403 Ry
     Harris-Foulkes estimate   =    -447.88869358 Ry
     estimated scf accuracy    <      10.64442780 Ry

     iteration # 18     ecut=    30.00 Ry     beta= 0.30
     Davidson diagonalization with overlap
     ethr =  8.67E-05,  avg # of iterations =  3.2

     negative rho (up, down):  6.068E-03 0.000E+00

     total cpu time spent up to now is    40271.6 secs

     total energy              =    -447.89300726 Ry
     Harris-Foulkes estimate   =    -447.88923002 Ry
     estimated scf accuracy    <       5.88199168 Ry

     iteration # 19     ecut=    30.00 Ry     beta= 0.30
     Davidson diagonalization with overlap
     ethr =  8.67E-05,  avg # of iterations =  1.6

     negative rho (up, down):  5.271E-03 0.000E+00

     total cpu time spent up to now is    42064.0 secs

     total energy              =    -447.92458530 Ry
     Harris-Foulkes estimate   =    -447.90244233 Ry
     estimated scf accuracy    <      12.99953533 Ry

     iteration # 20     ecut=    30.00 Ry     beta= 0.30
     Davidson diagonalization with overlap
     ethr =  8.67E-05,  avg # of iterations =  2.2

     negative rho (up, down):  6.244E-03 0.000E+00

     total cpu time spent up to now is    43865.1 secs

     total energy              =    -447.91488167 Ry
     Harris-Foulkes estimate   =    -447.92863291 Ry
     estimated scf accuracy    <      20.29010618 Ry

     iteration # 21     ecut=    30.00 Ry     beta= 0.30
     Davidson diagonalization with overlap
     ethr =  8.67E-05,  avg # of iterations =  1.0

     negative rho (up, down):  1.182E-02 0.000E+00

     total cpu time spent up to now is    45667.4 secs

     total energy              =    -447.76821477 Ry
     Harris-Foulkes estimate   =    -447.91794599 Ry
     estimated scf accuracy    <      14.24768514 Ry

     iteration # 22     ecut=    30.00 Ry     beta= 0.30
     Davidson diagonalization with overlap
     c_bands:  2 eigenvalues not converged
     c_bands:  1 eigenvalues not converged
     ethr =  8.67E-05,  avg # of iterations =  8.6

     negative rho (up, down):  9.568E-03 0.000E+00

     total cpu time spent up to now is    47855.2 secs

     total energy              =    -447.82539169 Ry
     Harris-Foulkes estimate   =    -447.85668119 Ry
     estimated scf accuracy    <       2.81836797 Ry

     iteration # 23     ecut=    30.00 Ry     beta= 0.30
     Davidson diagonalization with overlap
     ethr =  8.67E-05,  avg # of iterations =  2.9

     negative rho (up, down):  9.195E-03 0.000E+00

     total cpu time spent up to now is    49747.4 secs

     total energy              =    -447.84000835 Ry
     Harris-Foulkes estimate   =    -447.84396901 Ry
     estimated scf accuracy    <       1.20050755 Ry

     iteration # 24     ecut=    30.00 Ry     beta= 0.30
     Davidson diagonalization with overlap
     ethr =  8.67E-05,  avg # of iterations =  1.1

     negative rho (up, down):  8.553E-03 0.000E+00

     total cpu time spent up to now is    51541.2 secs

     total energy              =    -447.83947018 Ry
     Harris-Foulkes estimate   =    -447.84073485 Ry
     estimated scf accuracy    <       0.63821146 Ry

     iteration # 25     ecut=    30.00 Ry     beta= 0.30
     Davidson diagonalization with overlap
     ethr =  8.67E-05,  avg # of iterations =  1.0

     negative rho (up, down):  5.965E-03 0.000E+00

     total cpu time spent up to now is    53303.9 secs

     total energy              =    -447.83161317 Ry
     Harris-Foulkes estimate   =    -447.83972446 Ry
     estimated scf accuracy    <       0.42716338 Ry

     iteration # 26     ecut=    30.00 Ry     beta= 0.30
     Davidson diagonalization with overlap
     ethr =  8.67E-05,  avg # of iterations =  1.8

     negative rho (up, down):  5.896E-03 0.000E+00

     total cpu time spent up to now is    55138.7 secs

     total energy              =    -447.83617864 Ry
     Harris-Foulkes estimate   =    -447.83703122 Ry
     estimated scf accuracy    <       0.10377771 Ry

     iteration # 27     ecut=    30.00 Ry     beta= 0.30
     Davidson diagonalization with overlap
     ethr =  8.67E-05,  avg # of iterations =  1.0

     negative rho (up, down):  4.399E-03 0.000E+00

     total cpu time spent up to now is    56899.2 secs

     total energy              =    -447.83543373 Ry
     Harris-Foulkes estimate   =    -447.83657195 Ry
     estimated scf accuracy    <       0.01063123 Ry

     iteration # 28     ecut=    30.00 Ry     beta= 0.30
     Davidson diagonalization with overlap
     c_bands:  2 eigenvalues not converged
     c_bands:  2 eigenvalues not converged
     c_bands:  2 eigenvalues not converged
     c_bands:  1 eigenvalues not converged
     c_bands:  2 eigenvalues not converged
     ethr =  9.75E-06,  avg # of iterations =  7.2

     negative rho (up, down):  4.106E-03 0.000E+00

     total cpu time spent up to now is    58916.4 secs

     total energy              =    -447.83655996 Ry
     Harris-Foulkes estimate   =    -447.83702754 Ry
     estimated scf accuracy    <       0.04521728 Ry

     iteration # 29     ecut=    30.00 Ry     beta= 0.30
     Davidson diagonalization with overlap
     c_bands:  1 eigenvalues not converged
     ethr =  9.75E-06,  avg # of iterations =  2.7

     negative rho (up, down):  5.840E-03 0.000E+00

     total cpu time spent up to now is    60739.7 secs

     total energy              =    -447.83626770 Ry
     Harris-Foulkes estimate   =    -447.83682386 Ry
     estimated scf accuracy    <       0.01222793 Ry

     iteration # 30     ecut=    30.00 Ry     beta= 0.30
     Davidson diagonalization with overlap
     ethr =  9.75E-06,  avg # of iterations =  4.6

     negative rho (up, down):  5.636E-03 0.000E+00

     total cpu time spent up to now is    62642.7 secs

     total energy              =    -447.83671470 Ry
     Harris-Foulkes estimate   =    -447.83695961 Ry
     estimated scf accuracy    <       0.12809858 Ry

     iteration # 31     ecut=    30.00 Ry     beta= 0.30
     Davidson diagonalization with overlap
     ethr =  9.75E-06,  avg # of iterations =  1.0

     negative rho (up, down):  3.543E-03 0.000E+00

     total cpu time spent up to now is    64437.0 secs

     total energy              =    -447.83589790 Ry
     Harris-Foulkes estimate   =    -447.83675066 Ry
     estimated scf accuracy    <       0.07812627 Ry

     iteration # 32     ecut=    30.00 Ry     beta= 0.30
     Davidson diagonalization with overlap
     ethr =  9.75E-06,  avg # of iterations =  3.4

     negative rho (up, down):  4.873E-03 0.000E+00

     total cpu time spent up to now is    66354.8 secs

     total energy              =    -447.83638061 Ry
     Harris-Foulkes estimate   =    -447.83679446 Ry
     estimated scf accuracy    <       0.02835709 Ry

     iteration # 33     ecut=    30.00 Ry     beta= 0.30
     Davidson diagonalization with overlap
     ethr =  9.75E-06,  avg # of iterations =  1.0

     negative rho (up, down):  5.527E-03 0.000E+00

     total cpu time spent up to now is    68155.8 secs

     total energy              =    -447.83606737 Ry
     Harris-Foulkes estimate   =    -447.83644223 Ry
     estimated scf accuracy    <       0.01163754 Ry

     iteration # 34     ecut=    30.00 Ry     beta= 0.30
     Davidson diagonalization with overlap
     ethr =  9.75E-06,  avg # of iterations =  1.2

     negative rho (up, down):  2.846E-03 0.000E+00

     total cpu time spent up to now is    69964.3 secs

     total energy              =    -447.83605429 Ry
     Harris-Foulkes estimate   =    -447.83618382 Ry
     estimated scf accuracy    <       0.00356310 Ry

     iteration # 35     ecut=    30.00 Ry     beta= 0.30
     Davidson diagonalization with overlap
     c_bands:  4 eigenvalues not converged
     ethr =  3.27E-06,  avg # of iterations =  3.2

     negative rho (up, down):  6.856E-03 0.000E+00

     total cpu time spent up to now is    71909.1 secs

     total energy              =    -447.83618080 Ry
     Harris-Foulkes estimate   =    -447.83617826 Ry
     estimated scf accuracy    <       0.01316612 Ry

     iteration # 36     ecut=    30.00 Ry     beta= 0.30
     Davidson diagonalization with overlap
     ethr =  3.27E-06,  avg # of iterations =  1.6

     negative rho (up, down):  6.878E-03 0.000E+00

     total cpu time spent up to now is    73704.1 secs

     total energy              =    -447.83570763 Ry
     Harris-Foulkes estimate   =    -447.83631376 Ry
     estimated scf accuracy    <       0.07943584 Ry

     iteration # 37     ecut=    30.00 Ry     beta= 0.30
     Davidson diagonalization with overlap
     ethr =  3.27E-06,  avg # of iterations =  1.6

     negative rho (up, down):  9.699E-03 0.000E+00

     total cpu time spent up to now is    75501.4 secs

     total energy              =    -447.83567686 Ry
     Harris-Foulkes estimate   =    -447.83594131 Ry
     estimated scf accuracy    <       0.01265564 Ry

     iteration # 38     ecut=    30.00 Ry     beta= 0.30
     Davidson diagonalization with overlap
     ethr =  3.27E-06,  avg # of iterations =  2.2

     negative rho (up, down):  1.090E-02 0.000E+00

     total cpu time spent up to now is    77308.9 secs

     total energy              =    -447.83599426 Ry
     Harris-Foulkes estimate   =    -447.83593196 Ry
     estimated scf accuracy    <       0.06841894 Ry

     iteration # 39     ecut=    30.00 Ry     beta= 0.30
     Davidson diagonalization with overlap
     ethr =  3.27E-06,  avg # of iterations =  1.0

     negative rho (up, down):  9.545E-03 0.000E+00

     total cpu time spent up to now is    79078.0 secs

     total energy              =    -447.83571541 Ry
     Harris-Foulkes estimate   =    -447.83601268 Ry
     estimated scf accuracy    <       0.05628336 Ry

     iteration # 40     ecut=    30.00 Ry     beta= 0.30
     Davidson diagonalization with overlap
     ethr =  3.27E-06,  avg # of iterations =  1.0

     negative rho (up, down):  6.876E-03 0.000E+00

     total cpu time spent up to now is    80835.4 secs

     total energy              =    -447.83515055 Ry
     Harris-Foulkes estimate   =    -447.83576332 Ry
     estimated scf accuracy    <       0.02457225 Ry

     iteration # 41     ecut=    30.00 Ry     beta= 0.30
     Davidson diagonalization with overlap
     ethr =  3.27E-06,  avg # of iterations =  3.8

     negative rho (up, down):  8.617E-03 0.000E+00

     total cpu time spent up to now is    82704.6 secs

     total energy              =    -447.83524238 Ry
     Harris-Foulkes estimate   =    -447.83564007 Ry
     estimated scf accuracy    <       0.02717918 Ry

     iteration # 42     ecut=    30.00 Ry     beta= 0.30
