--------------------------------------------------------------------------
[[3937,1],0]: A high-performance Open MPI point-to-point messaging module
was unable to find any relevant network interfaces:

Module: OpenFabrics (openib)
  Host: ubuntu

Another transport will be used instead, although this may result in
lower performance.
--------------------------------------------------------------------------

     Program PWSCF v.5.1 starts on  4Jun2020 at 19:43: 3 

     This program is part of the open-source Quantum ESPRESSO suite
     for quantum simulation of materials; please cite
         "P. Giannozzi et al., J. Phys.:Condens. Matter 21 395502 (2009);
          URL http://www.quantum-espresso.org", 
     in publications or presentations arising from this work. More details at
     http://www.quantum-espresso.org/quote

     Parallel version (MPI), running on     1 processors
     Reading input from Al_111_H3_hole_B_site_0.pw.in

     Current dimensions of program PWSCF are:
     Max number of different atomic species (ntypx) = 10
     Max number of k-points (npk) =  40000
     Max angular momentum in pseudopotentials (lmaxx) =  3
               file H.pbe-rrkjus.UPF: wavefunction(s)  1S renormalized

     Subspace diagonalization in iterative solution of the eigenvalue problem:
     a serial algorithm will be used


     G-vector sticks info
     --------------------
     sticks:   dense  smooth     PW     G-vecs:    dense   smooth      PW
     Sum         301     241     85                61593    44015    8065



     bravais-lattice index     =            4
     lattice parameter (alat)  =       5.3760  a.u.
     unit-cell volume          =    1977.5856 (a.u.)^3
     number of atoms/cell      =           10
     number of atomic types    =            2
     number of electrons       =        28.00
     number of Kohn-Sham states=           18
     kinetic-energy cutoff     =      30.0000  Ry
     charge density cutoff     =     150.0000  Ry
     convergence threshold     =      9.0E-06
     mixing beta               =       0.3000
     number of iterations used =            8  local-TF  mixing
     Exchange-correlation      =  SLA  PW   PBE  PBE ( 1  4  3  4 0)
     nstep                     =           50


     celldm(1)=   5.376000  celldm(2)=   0.000000  celldm(3)=  14.696938
     celldm(4)=   0.000000  celldm(5)=   0.000000  celldm(6)=   0.000000

     crystal axes: (cart. coord. in units of alat)
               a(1) = (   1.000000   0.000000   0.000000 )  
               a(2) = (  -0.500000   0.866025   0.000000 )  
               a(3) = (   0.000000   0.000000  14.696938 )  

     reciprocal axes: (cart. coord. in units 2 pi/alat)
               b(1) = (  1.000000  0.577350 -0.000000 )  
               b(2) = (  0.000000  1.154701  0.000000 )  
               b(3) = (  0.000000 -0.000000  0.068041 )  


     PseudoPot. # 1 for Al read from file:
     ./Al.pbe-n-van.UPF
     MD5 check sum: b11ded24487aef5bc42d5c7a2e22a7b6
     Pseudo is Ultrasoft + core correction, Zval =  3.0
     Generated by new atomic code, or converted to UPF format
     Using radial grid of  893 points,  2 beta functions with: 
                l(1) =   0
                l(2) =   1
     Q(r) pseudized with  8 coefficients,  rinner =    0.900   0.900   0.900


     PseudoPot. # 2 for H  read from file:
     ./H.pbe-rrkjus.UPF
     MD5 check sum: 0433647300470310da31d564c103eed6
     Pseudo is Ultrasoft, Zval =  1.0
     Generated by new atomic code, or converted to UPF format
     Using radial grid of 1061 points,  2 beta functions with: 
                l(1) =   0
                l(2) =   0
     Q(r) pseudized with 0 coefficients 


     atomic species   valence    mass     pseudopotential
        Al             3.00    26.98000     Al( 1.00)
        H              1.00     1.00790     H ( 1.00)

      6 Sym. Ops. (no inversion) found



   Cartesian axes

     site n.     atom                  positions (alat units)
         1           Al  tau(   1) = (   0.0000000   0.5773502   1.6329930  )
         2           Al  tau(   2) = (   0.4999999   0.2886751   0.8164965  )
         3           Al  tau(   3) = (   0.0000000   0.0000000   0.0000000  )
         4           Al  tau(   4) = (   0.0000000   0.5773502   4.0824827  )
         5           Al  tau(   5) = (   0.4999999   0.2886751   3.2659862  )
         6           Al  tau(   6) = (   0.0000000   0.0000000   2.4494897  )
         7           Al  tau(   7) = (   0.0000000   0.5773502   6.5319725  )
         8           Al  tau(   8) = (   0.4999999   0.2886751   5.7154760  )
         9           Al  tau(   9) = (   0.0000000   0.0000000   4.8989795  )
        10           H   tau(  10) = (   0.4999999   0.2886751   6.1237241  )

     number of k points=    30  Marzari-Vanderbilt smearing, width (Ry)=  0.0250
                       cart. coord. in units 2pi/alat
        k(    1) = (   0.0000000   0.0000000   0.0000000), wk =   0.0078125
        k(    2) = (   0.0000000   0.0721688   0.0000000), wk =   0.0468750
        k(    3) = (   0.0000000   0.1443376   0.0000000), wk =   0.0468750
        k(    4) = (   0.0000000   0.2165064   0.0000000), wk =   0.0468750
        k(    5) = (   0.0000000   0.2886751   0.0000000), wk =   0.0468750
        k(    6) = (   0.0000000   0.3608439   0.0000000), wk =   0.0468750
        k(    7) = (   0.0000000   0.4330127   0.0000000), wk =   0.0468750
        k(    8) = (   0.0000000   0.5051815   0.0000000), wk =   0.0468750
        k(    9) = (   0.0000000  -0.5773503   0.0000000), wk =   0.0234375
        k(   10) = (   0.0625000   0.1082532   0.0000000), wk =   0.0468750
        k(   11) = (   0.0625000   0.1804220   0.0000000), wk =   0.0937500
        k(   12) = (   0.0625000   0.2525907   0.0000000), wk =   0.0937500
        k(   13) = (   0.0625000   0.3247595   0.0000000), wk =   0.0937500
        k(   14) = (   0.0625000   0.3969283   0.0000000), wk =   0.0937500
        k(   15) = (   0.0625000   0.4690971   0.0000000), wk =   0.0937500
        k(   16) = (   0.0625000   0.5412659   0.0000000), wk =   0.0937500
        k(   17) = (   0.1250000   0.2165064   0.0000000), wk =   0.0468750
        k(   18) = (   0.1250000   0.2886751   0.0000000), wk =   0.0937500
        k(   19) = (   0.1250000   0.3608439   0.0000000), wk =   0.0937500
        k(   20) = (   0.1250000   0.4330127   0.0000000), wk =   0.0937500
        k(   21) = (   0.1250000   0.5051815   0.0000000), wk =   0.0937500
        k(   22) = (   0.1250000   0.5773503   0.0000000), wk =   0.0468750
        k(   23) = (   0.1875000   0.3247595   0.0000000), wk =   0.0468750
        k(   24) = (   0.1875000   0.3969283   0.0000000), wk =   0.0937500
        k(   25) = (   0.1875000   0.4690971   0.0000000), wk =   0.0937500
        k(   26) = (   0.1875000   0.5412659   0.0000000), wk =   0.0937500
        k(   27) = (   0.2500000   0.4330127   0.0000000), wk =   0.0468750
        k(   28) = (   0.2500000   0.5051815   0.0000000), wk =   0.0937500
        k(   29) = (   0.2500000   0.5773503   0.0000000), wk =   0.0468750
        k(   30) = (   0.3125000   0.5412659   0.0000000), wk =   0.0468750

     Dense  grid:    61593 G-vectors     FFT dimensions: (  24,  24, 320)

     Smooth grid:    44015 G-vectors     FFT dimensions: (  20,  20, 288)

     Largest allocated arrays     est. size (Mb)     dimensions
        Kohn-Sham Wavefunctions         1.52 Mb     (    5537,   18)
        NL pseudopotentials             3.21 Mb     (    5537,   38)
        Each V/rho on FFT grid          2.81 Mb     (  184320)
        Each G-vector array             0.47 Mb     (   61593)
        G-vector shells                 0.01 Mb     (    1885)
     Largest temporary arrays     est. size (Mb)     dimensions
        Auxiliary wavefunctions         6.08 Mb     (    5537,   72)
        Each subspace H/S matrix        0.08 Mb     (      72,   72)
        Each <psi_i|beta_j> matrix      0.01 Mb     (      38,   18)
        Arrays for rho mixing          22.50 Mb     (  184320,    8)

     Initial potential from superposition of free atoms

     starting charge   27.88161, renormalised to   28.00000

     negative rho (up, down):  7.123E-05 0.000E+00
     Starting wfc are   37 randomized atomic wfcs

     total cpu time spent up to now is        9.5 secs

     per-process dynamical memory:    89.2 Mb

     Self-consistent Calculation

     iteration #  1     ecut=    30.00 Ry     beta=0.30
     Davidson diagonalization with overlap
     ethr =  1.00E-02,  avg # of iterations =  4.9

     negative rho (up, down):  1.243E-03 0.000E+00

     total cpu time spent up to now is       29.6 secs

     total energy              =    -114.74115951 Ry
     Harris-Foulkes estimate   =    -118.21568070 Ry
     estimated scf accuracy    <     552.45039838 Ry

     iteration #  2     ecut=    30.00 Ry     beta=0.30
     Davidson diagonalization with overlap
     ethr =  1.00E-02,  avg # of iterations =  1.6

     negative rho (up, down):  2.545E-02 0.000E+00

     total cpu time spent up to now is       38.0 secs

     total energy              =    -110.44288929 Ry
     Harris-Foulkes estimate   =    -115.30631599 Ry
     estimated scf accuracy    <     259.45304894 Ry

     iteration #  3     ecut=    30.00 Ry     beta=0.30
     Davidson diagonalization with overlap
     ethr =  1.00E-02,  avg # of iterations =  5.8

     negative rho (up, down):  2.149E-02 0.000E+00

     total cpu time spent up to now is       53.1 secs

     total energy              =    -113.00269495 Ry
     Harris-Foulkes estimate   =    -113.04893985 Ry
     estimated scf accuracy    <       1.97029334 Ry

     iteration #  4     ecut=    30.00 Ry     beta=0.30
     Davidson diagonalization with overlap
     ethr =  7.04E-03,  avg # of iterations =  1.5

     negative rho (up, down):  1.840E-02 0.000E+00

     total cpu time spent up to now is       62.0 secs

     total energy              =    -113.03850470 Ry
     Harris-Foulkes estimate   =    -113.05191408 Ry
     estimated scf accuracy    <       0.33623753 Ry

     iteration #  5     ecut=    30.00 Ry     beta=0.30
     Davidson diagonalization with overlap
     ethr =  1.20E-03,  avg # of iterations =  4.4

     negative rho (up, down):  1.723E-02 0.000E+00

     total cpu time spent up to now is       71.8 secs

     total energy              =    -113.05893293 Ry
     Harris-Foulkes estimate   =    -113.06755911 Ry
     estimated scf accuracy    <       0.37811063 Ry

     iteration #  6     ecut=    30.00 Ry     beta=0.30
     Davidson diagonalization with overlap
     ethr =  1.20E-03,  avg # of iterations =  1.1

     negative rho (up, down):  1.011E-02 0.000E+00

     total cpu time spent up to now is       80.7 secs

     total energy              =    -113.02720898 Ry
     Harris-Foulkes estimate   =    -113.06275503 Ry
     estimated scf accuracy    <       0.07294551 Ry

     iteration #  7     ecut=    30.00 Ry     beta=0.30
     Davidson diagonalization with overlap
     ethr =  2.61E-04,  avg # of iterations =  5.7

     negative rho (up, down):  7.865E-03 0.000E+00

     total cpu time spent up to now is       95.4 secs

     total energy              =    -113.05464169 Ry
     Harris-Foulkes estimate   =    -113.36508775 Ry
     estimated scf accuracy    <      27.56502891 Ry

     iteration #  8     ecut=    30.00 Ry     beta=0.30
     Davidson diagonalization with overlap
     ethr =  2.61E-04,  avg # of iterations =  4.3

     negative rho (up, down):  7.678E-03 0.000E+00

     total cpu time spent up to now is      107.2 secs

     total energy              =    -113.08266445 Ry
     Harris-Foulkes estimate   =    -113.12944051 Ry
     estimated scf accuracy    <       7.57736841 Ry

     iteration #  9     ecut=    30.00 Ry     beta=0.30
     Davidson diagonalization with overlap
     ethr =  2.61E-04,  avg # of iterations =  2.0

     negative rho (up, down):  5.553E-03 0.000E+00

     total cpu time spent up to now is      115.7 secs

     total energy              =    -113.02220384 Ry
     Harris-Foulkes estimate   =    -113.08934470 Ry
     estimated scf accuracy    <       3.81293459 Ry

     iteration # 10     ecut=    30.00 Ry     beta=0.30
     Davidson diagonalization with overlap
     ethr =  2.61E-04,  avg # of iterations =  4.4

     negative rho (up, down):  4.103E-03 0.000E+00

     total cpu time spent up to now is      128.0 secs

     total energy              =    -113.04050714 Ry
     Harris-Foulkes estimate   =    -113.05018699 Ry
     estimated scf accuracy    <       0.13728633 Ry

     iteration # 11     ecut=    30.00 Ry     beta=0.30
     Davidson diagonalization with overlap
     ethr =  2.61E-04,  avg # of iterations =  3.6

     negative rho (up, down):  2.408E-03 0.000E+00

     total cpu time spent up to now is      139.1 secs

     total energy              =    -113.03412327 Ry
     Harris-Foulkes estimate   =    -113.05967794 Ry
     estimated scf accuracy    <       0.99582500 Ry

     iteration # 12     ecut=    30.00 Ry     beta=0.30
     Davidson diagonalization with overlap
     ethr =  2.61E-04,  avg # of iterations =  3.0

     negative rho (up, down):  3.934E-03 0.000E+00

     total cpu time spent up to now is      148.3 secs

     total energy              =    -113.04683137 Ry
     Harris-Foulkes estimate   =    -113.04800258 Ry
     estimated scf accuracy    <       0.03087644 Ry

     iteration # 13     ecut=    30.00 Ry     beta=0.30
     Davidson diagonalization with overlap
     ethr =  1.10E-04,  avg # of iterations =  1.9

     negative rho (up, down):  2.069E-03 0.000E+00

     total cpu time spent up to now is      157.7 secs

     total energy              =    -113.04706506 Ry
     Harris-Foulkes estimate   =    -113.04730969 Ry
     estimated scf accuracy    <       0.00719931 Ry

     iteration # 14     ecut=    30.00 Ry     beta=0.30
     Davidson diagonalization with overlap
     ethr =  2.57E-05,  avg # of iterations =  2.7

     negative rho (up, down):  2.430E-03 0.000E+00

     total cpu time spent up to now is      167.2 secs

     total energy              =    -113.04688134 Ry
     Harris-Foulkes estimate   =    -113.04726941 Ry
     estimated scf accuracy    <       0.00534137 Ry

     iteration # 15     ecut=    30.00 Ry     beta=0.30
     Davidson diagonalization with overlap
     ethr =  1.91E-05,  avg # of iterations =  1.7

     negative rho (up, down):  6.086E-03 0.000E+00

     total cpu time spent up to now is      176.0 secs

     total energy              =    -113.04678031 Ry
     Harris-Foulkes estimate   =    -113.04693790 Ry
     estimated scf accuracy    <       0.00281755 Ry

     iteration # 16     ecut=    30.00 Ry     beta=0.30
     Davidson diagonalization with overlap
     ethr =  1.01E-05,  avg # of iterations =  2.8

     negative rho (up, down):  3.240E-03 0.000E+00

     total cpu time spent up to now is      186.4 secs

     total energy              =    -113.04646383 Ry
     Harris-Foulkes estimate   =    -113.04685364 Ry
     estimated scf accuracy    <       0.00323023 Ry

     iteration # 17     ecut=    30.00 Ry     beta=0.30
     Davidson diagonalization with overlap
     ethr =  1.01E-05,  avg # of iterations =  3.2

     negative rho (up, down):  5.262E-03 0.000E+00

     total cpu time spent up to now is      194.9 secs

     total energy              =    -113.04660036 Ry
     Harris-Foulkes estimate   =    -113.04675637 Ry
     estimated scf accuracy    <       0.00843375 Ry

     iteration # 18     ecut=    30.00 Ry     beta=0.30
     Davidson diagonalization with overlap
     ethr =  1.01E-05,  avg # of iterations =  1.9

     negative rho (up, down):  4.221E-03 0.000E+00

     total cpu time spent up to now is      203.9 secs

     total energy              =    -113.04636239 Ry
     Harris-Foulkes estimate   =    -113.04662448 Ry
     estimated scf accuracy    <       0.00413483 Ry

     iteration # 19     ecut=    30.00 Ry     beta=0.30
     Davidson diagonalization with overlap
     ethr =  1.01E-05,  avg # of iterations =  2.3

     negative rho (up, down):  2.491E-03 0.000E+00

     total cpu time spent up to now is      213.1 secs

     total energy              =    -113.04647181 Ry
     Harris-Foulkes estimate   =    -113.04656293 Ry
     estimated scf accuracy    <       0.00304884 Ry

     iteration # 20     ecut=    30.00 Ry     beta=0.30
     Davidson diagonalization with overlap
     ethr =  1.01E-05,  avg # of iterations =  1.8

     negative rho (up, down):  1.904E-03 0.000E+00

     total cpu time spent up to now is      221.5 secs

     total energy              =    -113.04618509 Ry
     Harris-Foulkes estimate   =    -113.04648658 Ry
     estimated scf accuracy    <       0.00147435 Ry

     iteration # 21     ecut=    30.00 Ry     beta=0.30
     Davidson diagonalization with overlap
     ethr =  5.27E-06,  avg # of iterations =  3.1

     negative rho (up, down):  2.221E-03 0.000E+00

     total cpu time spent up to now is      231.7 secs

     total energy              =    -113.04589765 Ry
     Harris-Foulkes estimate   =    -113.04656793 Ry
     estimated scf accuracy    <       0.01192120 Ry

     iteration # 22     ecut=    30.00 Ry     beta=0.30
     Davidson diagonalization with overlap
     ethr =  5.27E-06,  avg # of iterations =  4.3

     negative rho (up, down):  3.540E-03 0.000E+00

     total cpu time spent up to now is      243.1 secs

     total energy              =    -113.04621060 Ry
     Harris-Foulkes estimate   =    -113.04642047 Ry
     estimated scf accuracy    <       0.00309022 Ry

     iteration # 23     ecut=    30.00 Ry     beta=0.30
     Davidson diagonalization with overlap
     ethr =  5.27E-06,  avg # of iterations =  3.3

     negative rho (up, down):  2.304E-03 0.000E+00

     total cpu time spent up to now is      253.4 secs

     total energy              =    -113.04632513 Ry
     Harris-Foulkes estimate   =    -113.04636089 Ry
     estimated scf accuracy    <       0.00080747 Ry

     iteration # 24     ecut=    30.00 Ry     beta=0.30
     Davidson diagonalization with overlap
     ethr =  2.88E-06,  avg # of iterations =  2.0

     negative rho (up, down):  1.758E-03 0.000E+00

     total cpu time spent up to now is      263.0 secs

     total energy              =    -113.04633681 Ry
     Harris-Foulkes estimate   =    -113.04634200 Ry
     estimated scf accuracy    <       0.00005634 Ry

     iteration # 25     ecut=    30.00 Ry     beta=0.30
     Davidson diagonalization with overlap
     ethr =  2.01E-07,  avg # of iterations =  3.5

     negative rho (up, down):  3.462E-04 0.000E+00

     total cpu time spent up to now is      274.1 secs

     total energy              =    -113.04632097 Ry
     Harris-Foulkes estimate   =    -113.04634279 Ry
     estimated scf accuracy    <       0.00010259 Ry

     iteration # 26     ecut=    30.00 Ry     beta=0.30
     Davidson diagonalization with overlap
     ethr =  2.01E-07,  avg # of iterations =  4.1

     negative rho (up, down):  4.770E-04 0.000E+00

     total cpu time spent up to now is      284.5 secs

     total energy              =    -113.04632846 Ry
     Harris-Foulkes estimate   =    -113.04633002 Ry
     estimated scf accuracy    <       0.00013198 Ry

     iteration # 27     ecut=    30.00 Ry     beta=0.30
     Davidson diagonalization with overlap
     ethr =  2.01E-07,  avg # of iterations =  2.3

     negative rho (up, down):  4.023E-04 0.000E+00

     total cpu time spent up to now is      293.4 secs

     total energy              =    -113.04633247 Ry
     Harris-Foulkes estimate   =    -113.04632930 Ry
     estimated scf accuracy    <       0.00006056 Ry

     iteration # 28     ecut=    30.00 Ry     beta=0.30
     Davidson diagonalization with overlap
     ethr =  2.01E-07,  avg # of iterations =  2.8

     negative rho (up, down):  2.935E-05 0.000E+00

     total cpu time spent up to now is      302.8 secs

     End of self-consistent calculation

          k = 0.0000 0.0000 0.0000 (  5537 PWs)   bands (ev):

   -10.6348  -9.0149  -8.6787  -8.1392  -7.4148  -6.5200  -5.4893  -4.4032
    -3.3682  -2.3066  -0.8366   0.7576   2.4315   3.9579   4.8475   5.6894
     5.7611   6.3100

          k = 0.0000 0.0722 0.0000 (  5524 PWs)   bands (ev):

   -10.5486  -8.9195  -8.5836  -8.0445  -7.3207  -6.4264  -5.3960  -4.3100
    -3.2776  -2.2194  -0.7512   0.8404   2.5134   4.0440   4.9079   5.7706
     5.8552   6.3739

          k = 0.0000 0.1443 0.0000 (  5500 PWs)   bands (ev):

   -10.2915  -8.6337  -8.2988  -7.7611  -7.0388  -6.1461  -5.1167  -4.0314
    -3.0074  -1.9602  -0.4995   1.0841   2.7526   4.2980   5.0185   5.9589
     6.1374   6.4763

          k = 0.0000 0.2165 0.0000 (  5496 PWs)   bands (ev):

    -9.8690  -8.1586  -7.8255  -7.2902  -6.5707  -5.6806  -4.6528  -3.5687
    -2.5623  -1.5349  -0.0954   1.4634   3.0960   4.5906   4.7367   5.9149
     6.4947   6.6056

          k = 0.0000 0.2887 0.0000 (  5490 PWs)   bands (ev):

    -9.2917  -7.4960  -7.1656  -6.6341  -5.9188  -5.0327  -4.0076  -2.9251
    -1.9565  -0.9665   0.4003   1.8294   3.0460   3.8791   4.3959   4.6465
     5.0325   5.4954

          k = 0.0000 0.3608 0.0000 (  5482 PWs)   bands (ev):

    -8.5820  -6.6489  -6.3224  -5.7964  -5.0875  -4.2079  -3.1874  -2.1070
    -1.2598  -0.3925   0.6436   1.6416   2.1129   2.6035   3.0996   3.3652
     3.7678   4.4721

          k = 0.0000 0.4330 0.0000 (  5488 PWs)   bands (ev):

    -7.7912  -5.6209  -5.3005  -4.7836  -4.0870  -3.2235  -2.2228  -1.2186
    -1.1180  -0.0961   0.1979   0.4792   1.0014   1.4605   1.9124   2.6513
     2.7435   3.6447

          k = 0.0000 0.5052 0.0000 (  5504 PWs)   bands (ev):

    -7.0542  -4.4174  -4.1103  -3.6198  -2.9832  -2.3507  -1.8506  -1.4667
    -1.1861  -1.0072  -0.6998  -0.1534   0.3624   1.0678   1.3220   1.9921
     2.1978   3.0040

          k = 0.0000-0.5774 0.0000 (  5484 PWs)   bands (ev):

    -6.7088  -3.1455  -3.0414  -2.9610  -2.7492  -2.6215  -2.2428  -2.0298
    -1.5901  -1.3827  -0.8871  -0.3721   0.3784   0.7023   1.4666   1.5458
     2.2157   2.7471

          k = 0.0625 0.1083 0.0000 (  5511 PWs)   bands (ev):

   -10.3770  -8.7289  -8.3937  -7.8555  -7.1327  -6.2394  -5.2097  -4.1242
    -3.0971  -2.0462  -0.5827   1.0040   2.6747   4.2146   5.0000   5.9122
     6.0435   6.4651

          k = 0.0625 0.1804 0.0000 (  5519 PWs)   bands (ev):

   -10.0371  -8.3485  -8.0146  -7.4783  -6.7577  -5.8666  -4.8381  -3.7534
    -2.7391  -1.7035  -0.2537   1.3182   2.9746   4.5409   4.9370   6.0003
     6.4176   6.5534

          k = 0.0625 0.2526 0.0000 (  5496 PWs)   bands (ev):

    -9.5366  -7.7796  -7.4480  -6.9148  -6.1976  -5.3097  -4.2833  -3.2002
    -2.2123  -1.2035   0.2066   1.7238   3.2395   4.2164   4.8778   5.5586
     5.6877   6.1519

          k = 0.0625 0.3248 0.0000 (  5488 PWs)   bands (ev):

    -8.8913  -7.0248  -6.6964  -6.1678  -5.4558  -4.5730  -3.5500  -2.4688
    -1.5455  -0.5988   0.6474   1.8571   2.7999   3.3349   3.7264   4.0951
     4.5121   4.7690

          k = 0.0625 0.3969 0.0000 (  5490 PWs)   bands (ev):

    -8.1349  -6.0871  -5.7636  -5.2420  -4.5386  -3.6652  -2.6502  -1.5699
    -0.9891  -0.2064   0.7103   1.1457   1.5250   2.0925   2.5511   2.8232
     3.6430   3.7486

          k = 0.0625 0.4691 0.0000 (  5501 PWs)   bands (ev):

    -7.3496  -4.9709  -4.6559  -4.1483  -3.4666  -2.6348  -1.7859  -1.3642
    -0.6500  -0.4908  -0.3267   0.1020   0.7091   1.2760   1.7163   1.9700
     2.8490   3.1427

          k = 0.0625 0.5413 0.0000 (  5499 PWs)   bands (ev):

    -6.7577  -3.6857  -3.4025  -2.9929  -2.6000  -2.2510  -2.0536  -1.8200
    -1.4228  -1.2185  -0.7823  -0.2269   0.3662   0.9698   1.3012   1.8485
     2.3051   2.7646

          k = 0.1250 0.2165 0.0000 (  5513 PWs)   bands (ev):

    -9.6190  -7.8743  -7.5423  -7.0085  -6.2908  -5.4023  -4.3755  -3.2920
    -2.2988  -1.2845   0.1367   1.6734   3.2615   4.4933   4.8975   5.9865
     6.6291   6.7003

          k = 0.1250 0.2887 0.0000 (  5487 PWs)   bands (ev):

    -9.0489  -7.2131  -6.8838  -6.3540  -5.6406  -4.7563  -3.7322  -2.6506
    -1.7026  -0.7298   0.6018   1.9913   3.1939   4.0976   4.6007   4.8430
     5.1168   5.4349

          k = 0.1250 0.3608 0.0000 (  5494 PWs)   bands (ev):

    -8.3506  -6.3676  -6.0425  -5.5184  -4.8118  -3.9346  -2.9158  -1.8354
    -1.0363  -0.1871   0.8475   1.8852   2.3630   2.8453   3.3279   3.5489
     3.9521   4.4406

          k = 0.1250 0.4330 0.0000 (  5496 PWs)   bands (ev):

    -7.5775  -5.3417  -5.0229  -4.5085  -3.8148  -2.9553  -1.9602  -1.0130
    -0.8602   0.1633   0.4634   0.7335   1.2439   1.7210   2.1590   2.7901
     2.9798   3.7181

          k = 0.1250 0.5052 0.0000 (  5491 PWs)   bands (ev):

    -6.8662  -4.1406  -3.8357  -3.3492  -2.7195  -2.0941  -1.5821  -1.1961
    -0.9194  -0.7403  -0.4358   0.1061   0.6115   1.3077   1.5643   2.2217
     2.3849   3.2018

          k = 0.1250 0.5774 0.0000 (  5460 PWs)   bands (ev):

    -6.5384  -2.8721  -2.7676  -2.6880  -2.4789  -2.3498  -1.9730  -1.7563
    -1.3252  -1.1137  -0.6265  -0.1068   0.6344   0.9583   1.7073   1.7948
     2.3013   2.9383

          k = 0.1875 0.3248 0.0000 (  5509 PWs)   bands (ev):

    -8.4240  -6.4613  -6.1356  -5.6108  -4.9032  -4.0248  -3.0049  -1.9245
    -1.0829  -0.1944   0.9364   2.1272   3.1115   3.5551   3.7987   3.9240
     4.1448   4.2582

          k = 0.1875 0.3969 0.0000 (  5493 PWs)   bands (ev):

    -7.6996  -5.5275  -5.2071  -4.6899  -3.9923  -3.1261  -2.1177  -1.0339
    -0.6855   0.2321   1.1957   1.6546   1.9858   2.4631   2.8149   2.8702
     3.1957   3.3569

          k = 0.1875 0.4691 0.0000 (  5470 PWs)   bands (ev):

    -6.9638  -4.4160  -4.1048  -3.6037  -2.9324  -2.1190  -1.3202  -0.8540
    -0.1176   0.0327   0.2004   0.5936   1.1409   1.7116   1.9881   2.3574
     2.5151   2.7830

          k = 0.1875 0.5413 0.0000 (  5454 PWs)   bands (ev):

    -6.4299  -3.1365  -2.8595  -2.4602  -2.0635  -1.7124  -1.5124  -1.2775
    -0.8973  -0.6838  -0.2649   0.2949   0.8415   1.4117   1.6383   1.9324
     2.3482   2.5526

          k = 0.2500 0.4330 0.0000 (  5491 PWs)   bands (ev):

    -7.0019  -4.5080  -4.1954  -3.6911  -3.0128  -2.1780  -1.2421  -0.6652
    -0.0906   0.8566   1.1382   1.2475   1.2763   1.4210   1.6938   2.1005
     2.4474   2.5797

          k = 0.2500 0.5052 0.0000 (  5430 PWs)   bands (ev):

    -6.3967  -3.3151  -3.0195  -2.5516  -1.9585  -1.3664  -0.7892  -0.3925
    -0.1509   0.0420   0.2868   0.6000   0.8937   0.9808   1.2702   1.3744
     1.7810   2.1397

          k = 0.2500 0.5774 0.0000 (  5430 PWs)   bands (ev):

    -6.1378  -2.0567  -1.9526  -1.8733  -1.6768  -1.5389  -1.1776  -0.9454
    -0.5707  -0.3161   0.0746   0.5111   0.6412   0.9315   1.2337   1.3526
     1.6156   1.7274

          k = 0.3125 0.5413 0.0000 (  5411 PWs)   bands (ev):

    -6.0384  -2.0532  -1.8106  -1.4694  -1.0495  -0.7103  -0.6524  -0.5362
    -0.4228  -0.2327  -0.1809   0.1404   0.3338   0.3919   0.6762   0.9677
     1.2897   1.6036

     the Fermi energy is     2.1239 ev

!    total energy              =    -113.04633369 Ry
     Harris-Foulkes estimate   =    -113.04633455 Ry
     estimated scf accuracy    <       0.00000388 Ry

     The total energy is the sum of the following terms:

     one-electron contribution =   -1239.69783761 Ry
     hartree contribution      =     627.74239652 Ry
     xc contribution           =     -91.09361967 Ry
     ewald contribution        =     590.00140682 Ry
     smearing contrib. (-TS)   =       0.00132025 Ry

     convergence has been achieved in  28 iterations

     Forces acting on atoms (Ry/au):


     negative rho (up, down):  2.935E-05 0.000E+00
     atom    1 type  1   force =     0.00000000   -0.00000000   -0.00246169
     atom    2 type  1   force =     0.00000000    0.00000000    0.00229634
     atom    3 type  1   force =     0.00000000   -0.00000000   -0.00331721
     atom    4 type  1   force =     0.00000000    0.00000000   -0.00018189
     atom    5 type  1   force =     0.00000000    0.00000000    0.00130429
     atom    6 type  1   force =    -0.00000000    0.00000000    0.00199354
     atom    7 type  1   force =     0.00000000    0.00000000    0.02379380
     atom    8 type  1   force =     0.00000000    0.00000000   -0.56936612
     atom    9 type  1   force =     0.00000000    0.00000000   -0.00224320
     atom   10 type  2   force =     0.00000000    0.00000000    0.54818214

     Total force =     0.790747     Total SCF correction =     0.003230


     entering subroutine stress ...


     negative rho (up, down):  2.935E-05 0.000E+00
          total   stress  (Ry/bohr**3)                   (kbar)     P=   29.57
  -0.00002966   0.00000000   0.00000000         -4.36      0.00      0.00
  -0.00000000  -0.00002966   0.00000000         -0.00     -4.36      0.00
   0.00000000   0.00000000   0.00066245          0.00      0.00     97.45


     BFGS Geometry Optimization

     number of scf cycles    =   1
     number of bfgs steps    =   0

     energy   new            =    -113.0463336949 Ry

     new trust radius        =       0.5000000000 bohr
     new conv_thr            =       0.0000090000 Ry


ATOMIC_POSITIONS (crystal)
Al       0.333333300   0.666666600   0.111083739
Al       0.666666600   0.333333300   0.055581073
Al      -0.000000000  -0.000000000  -0.000036869
Al       0.333333300   0.666666600   0.277775745
Al       0.666666600   0.333333300   0.222236713
Al      -0.000000000   0.000000000   0.166688824
Al       0.333333300   0.666666600   0.444708891
Al       0.666666600   0.333333300   0.382560630
Al       0.000000000   0.000000000   0.333308401
H        0.666666600   0.333333300   0.422759453



     Writing output data file Al_111_3_3.save
     NEW-OLD atomic charge density approx. for the potential

     negative rho (up, down):  6.808E-05 0.000E+00

     total cpu time spent up to now is      311.0 secs

     per-process dynamical memory:    97.9 Mb

     Self-consistent Calculation

     iteration #  1     ecut=    30.00 Ry     beta=0.30
     Davidson diagonalization with overlap
     c_bands:  1 eigenvalues not converged
     ethr =  1.00E-06,  avg # of iterations = 12.3

     negative rho (up, down):  3.217E-04 0.000E+00

     total cpu time spent up to now is      344.3 secs

     total energy              =    -113.26066236 Ry
     Harris-Foulkes estimate   =    -113.28674692 Ry
     estimated scf accuracy    <       0.31505536 Ry

     iteration #  2     ecut=    30.00 Ry     beta=0.30
     Davidson diagonalization with overlap
     ethr =  1.13E-03,  avg # of iterations =  1.0

     negative rho (up, down):  3.829E-03 0.000E+00

     total cpu time spent up to now is      354.1 secs

     total energy              =    -113.21431692 Ry
     Harris-Foulkes estimate   =    -113.26276313 Ry
     estimated scf accuracy    <       0.17835637 Ry

     iteration #  3     ecut=    30.00 Ry     beta=0.30
     Davidson diagonalization with overlap
     ethr =  6.37E-04,  avg # of iterations =  1.8

     negative rho (up, down):  3.687E-03 0.000E+00

     total cpu time spent up to now is      363.6 secs

     total energy              =    -113.23562825 Ry
     Harris-Foulkes estimate   =    -113.23576883 Ry
     estimated scf accuracy    <       0.00594975 Ry

     iteration #  4     ecut=    30.00 Ry     beta=0.30
     Davidson diagonalization with overlap
     ethr =  2.12E-05,  avg # of iterations =  3.2

     negative rho (up, down):  3.760E-03 0.000E+00

     total cpu time spent up to now is      373.1 secs

     total energy              =    -113.23596361 Ry
     Harris-Foulkes estimate   =    -113.23590228 Ry
     estimated scf accuracy    <       0.00504350 Ry

     iteration #  5     ecut=    30.00 Ry     beta=0.30
     Davidson diagonalization with overlap
     ethr =  1.80E-05,  avg # of iterations =  1.0

     negative rho (up, down):  3.293E-03 0.000E+00

     total cpu time spent up to now is      381.2 secs

     total energy              =    -113.23501320 Ry
     Harris-Foulkes estimate   =    -113.23597732 Ry
     estimated scf accuracy    <       0.00574107 Ry

     iteration #  6     ecut=    30.00 Ry     beta=0.30
     Davidson diagonalization with overlap
     ethr =  1.80E-05,  avg # of iterations =  2.5

     negative rho (up, down):  3.629E-03 0.000E+00

     total cpu time spent up to now is      391.2 secs

     total energy              =    -113.23571311 Ry
     Harris-Foulkes estimate   =    -113.23578510 Ry
     estimated scf accuracy    <       0.00287014 Ry

     iteration #  7     ecut=    30.00 Ry     beta=0.30
     Davidson diagonalization with overlap
     ethr =  1.03E-05,  avg # of iterations =  1.0

     negative rho (up, down):  3.628E-03 0.000E+00

     total cpu time spent up to now is      398.8 secs

     total energy              =    -113.23572188 Ry
     Harris-Foulkes estimate   =    -113.23574410 Ry
     estimated scf accuracy    <       0.00352036 Ry

     iteration #  8     ecut=    30.00 Ry     beta=0.30
     Davidson diagonalization with overlap
     ethr =  1.03E-05,  avg # of iterations =  1.0

     negative rho (up, down):  3.456E-03 0.000E+00

     total cpu time spent up to now is      406.8 secs

     total energy              =    -113.23555975 Ry
     Harris-Foulkes estimate   =    -113.23572626 Ry
     estimated scf accuracy    <       0.00341733 Ry

     iteration #  9     ecut=    30.00 Ry     beta=0.30
     Davidson diagonalization with overlap
     ethr =  1.03E-05,  avg # of iterations =  1.6

     negative rho (up, down):  3.038E-03 0.000E+00

     total cpu time spent up to now is      414.8 secs

     total energy              =    -113.23530489 Ry
     Harris-Foulkes estimate   =    -113.23559024 Ry
     estimated scf accuracy    <       0.00152067 Ry

     iteration # 10     ecut=    30.00 Ry     beta=0.30
     Davidson diagonalization with overlap
     ethr =  5.43E-06,  avg # of iterations =  3.4

     negative rho (up, down):  2.687E-03 0.000E+00

     total cpu time spent up to now is      425.2 secs

     total energy              =    -113.23553424 Ry
     Harris-Foulkes estimate   =    -113.23552831 Ry
     estimated scf accuracy    <       0.00058243 Ry

     iteration # 11     ecut=    30.00 Ry     beta=0.30
     Davidson diagonalization with overlap
     ethr =  2.08E-06,  avg # of iterations =  2.5

     negative rho (up, down):  1.850E-03 0.000E+00

     total cpu time spent up to now is      433.5 secs

     total energy              =    -113.23532740 Ry
     Harris-Foulkes estimate   =    -113.23553644 Ry
     estimated scf accuracy    <       0.00071752 Ry

     iteration # 12     ecut=    30.00 Ry     beta=0.30
     Davidson diagonalization with overlap
     ethr =  2.08E-06,  avg # of iterations =  3.7

     negative rho (up, down):  1.787E-03 0.000E+00

     total cpu time spent up to now is      444.3 secs

     total energy              =    -113.23547426 Ry
     Harris-Foulkes estimate   =    -113.23547588 Ry
     estimated scf accuracy    <       0.00037341 Ry

     iteration # 13     ecut=    30.00 Ry     beta=0.30
     Davidson diagonalization with overlap
     ethr =  1.33E-06,  avg # of iterations =  1.0

     negative rho (up, down):  1.046E-03 0.000E+00

     total cpu time spent up to now is      453.9 secs

     total energy              =    -113.23540678 Ry
     Harris-Foulkes estimate   =    -113.23547515 Ry
     estimated scf accuracy    <       0.00037323 Ry

     iteration # 14     ecut=    30.00 Ry     beta=0.30
     Davidson diagonalization with overlap
     ethr =  1.33E-06,  avg # of iterations =  2.9

     negative rho (up, down):  1.033E-03 0.000E+00

     total cpu time spent up to now is      464.4 secs

     total energy              =    -113.23544039 Ry
     Harris-Foulkes estimate   =    -113.23544020 Ry
     estimated scf accuracy    <       0.00001285 Ry

     iteration # 15     ecut=    30.00 Ry     beta=0.30
     Davidson diagonalization with overlap
     ethr =  4.59E-08,  avg # of iterations =  2.1

     negative rho (up, down):  6.134E-04 0.000E+00

     total cpu time spent up to now is      476.2 secs

     total energy              =    -113.23543659 Ry
     Harris-Foulkes estimate   =    -113.23544124 Ry
     estimated scf accuracy    <       0.00001310 Ry

     iteration # 16     ecut=    30.00 Ry     beta=0.30
     Davidson diagonalization with overlap
     ethr =  4.59E-08,  avg # of iterations =  2.5

     negative rho (up, down):  2.221E-05 0.000E+00

     total cpu time spent up to now is      486.8 secs

     End of self-consistent calculation

          k = 0.0000 0.0000 0.0000 (  5537 PWs)   bands (ev):

   -10.1551  -9.0788  -8.8049  -8.3280  -7.6279  -6.7154  -5.6223  -4.4305
    -3.2706  -2.2417  -0.8216   0.6601   2.2401   3.8545   5.1109   5.7440
     5.8356   6.4824

          k = 0.0000 0.0722 0.0000 (  5524 PWs)   bands (ev):

   -10.0663  -8.9838  -8.7104  -8.2337  -7.5338  -6.6217  -5.5290  -4.3376
    -3.1785  -2.1534  -0.7353   0.7435   2.3229   3.9389   5.1938   5.8297
     5.9298   6.5674

          k = 0.0000 0.1443 0.0000 (  5500 PWs)   bands (ev):

    -9.8010  -8.6991  -8.4273  -7.9511  -7.2518  -6.3408  -5.2497  -4.0595
    -2.9030  -1.8899  -0.4798   0.9898   2.5668   4.1858   5.4247   6.0570
     6.2109   6.7799

          k = 0.0000 0.2165 0.0000 (  5496 PWs)   bands (ev):

    -9.3639  -8.2261  -7.9570  -7.4817  -6.7834  -5.8744  -4.7857  -3.5979
    -2.4470  -1.4550  -0.0668   1.3789   2.9398   4.5347   5.3972   5.9459
     6.4679   6.5686

          k = 0.0000 0.2887 0.0000 (  5490 PWs)   bands (ev):

    -8.7642  -7.5670  -7.3018  -6.8279  -6.1310  -5.2250  -4.1402  -2.9561
    -1.8169  -0.8620   0.4546   1.8028   3.1317   3.9428   4.3630   4.5059
     4.8878   5.3570

          k = 0.0000 0.3608 0.0000 (  5482 PWs)   bands (ev):

    -8.0215  -6.7254  -6.4656  -5.9934  -5.2985  -4.3967  -3.3185  -2.1418
    -1.0334  -0.2021   0.7273   1.6177   2.0757   2.5561   2.9069   3.3324
     3.5772   4.2726

          k = 0.0000 0.4330 0.0000 (  5488 PWs)   bands (ev):

    -7.1820  -5.7071  -5.4543  -4.9845  -4.2933  -3.4003  -2.3393  -1.1970
    -0.6427  -0.1662   0.1372   0.3936   0.9377   1.4117   1.7065   2.4938
     2.7247   3.5089

          k = 0.0000 0.5052 0.0000 (  5504 PWs)   bands (ev):

    -6.3776  -4.5248  -4.2795  -3.8163  -3.1403  -2.3226  -1.8991  -1.4812
    -1.2740  -1.0800  -0.7900  -0.2639   0.2678   0.9008   1.3715   1.8581
     2.2484   2.9796

          k = 0.0000-0.5774 0.0000 (  5484 PWs)   bands (ev):

    -5.9855  -3.3062  -3.1763  -2.9974  -2.9307  -2.6202  -2.4158  -1.9775
    -1.7973  -1.4127  -1.0413  -0.5634   0.2078   0.5915   1.4890   1.5009
     2.4264   2.7632

          k = 0.0625 0.1083 0.0000 (  5511 PWs)   bands (ev):

    -9.8892  -8.7939  -8.5216  -8.0452  -7.3457  -6.4343  -5.3427  -4.1521
    -2.9946  -1.9775  -0.5643   0.9087   2.4867   4.1051   5.3529   5.9901
     6.1176   6.7241

          k = 0.0625 0.1804 0.0000 (  5519 PWs)   bands (ev):

    -9.5380  -8.4151  -8.1449  -7.6693  -6.9705  -6.0608  -4.9711  -3.7821
    -2.6287  -1.6281  -0.2292   1.2284   2.7998   4.4178   5.5879   6.1361
     6.4868   6.7851

          k = 0.0625 0.2526 0.0000 (  5496 PWs)   bands (ev):

    -9.0191  -7.8490  -7.5821  -7.1076  -6.4101  -5.5027  -4.4161  -3.2303
    -2.0853  -1.1123   0.2463   1.6582   3.1724   4.5239   4.9684   5.4277
     5.6209   5.9516

          k = 0.0625 0.3248 0.0000 (  5488 PWs)   bands (ev):

    -8.3463  -7.0985  -6.8363  -6.3634  -5.6675  -4.7637  -3.6821  -2.5015
    -1.3747  -0.4615   0.7348   1.9009   2.8057   3.3189   3.6716   3.8941
     4.3547   4.5967

          k = 0.0625 0.3969 0.0000 (  5490 PWs)   bands (ev):

    -7.5494  -6.1682  -5.9122  -5.4412  -4.7479  -3.8499  -2.7780  -1.6097
    -0.5606  -0.0693   0.6508   1.0882   1.4618   1.9789   2.4972   2.6420
     3.4402   3.7007

          k = 0.0625 0.4691 0.0000 (  5501 PWs)   bands (ev):

    -6.7055  -5.0660  -4.8175  -4.3503  -3.6632  -2.7826  -1.7719  -1.1771
    -0.6938  -0.5091  -0.3995   0.0030   0.6465   1.1597   1.6795   1.8333
     2.7198   3.1922

          k = 0.0625 0.5413 0.0000 (  5499 PWs)   bands (ev):

    -6.0457  -3.8173  -3.5720  -3.1247  -2.5956  -2.3988  -2.1535  -1.7917
    -1.5923  -1.2663  -0.9194  -0.3812   0.1927   0.9237   1.1891   1.9724
     2.2839   2.8697

          k = 0.1250 0.2165 0.0000 (  5513 PWs)   bands (ev):

    -9.1047  -7.9432  -7.6757  -7.2010  -6.5033  -5.5955  -4.5083  -3.3219
    -2.1752  -1.1969   0.1726   1.5993   3.1443   4.7116   5.3103   5.9239
     6.5328   6.5767

          k = 0.1250 0.2887 0.0000 (  5487 PWs)   bands (ev):

    -8.5113  -7.2856  -7.0222  -6.5488  -5.8526  -4.9477  -3.8646  -2.6825
    -1.5491  -0.6122   0.6683   1.9878   3.3034   4.1512   4.5441   4.6814
     5.0500   5.3194

          k = 0.1250 0.3608 0.0000 (  5494 PWs)   bands (ev):

    -7.7787  -6.4461  -6.1880  -5.7164  -5.0222  -4.1221  -3.0461  -1.8715
    -0.7740   0.0163   0.9201   1.8610   2.3169   2.7762   3.1271   3.5286
     3.7736   4.3817

          k = 0.1250 0.4330 0.0000 (  5496 PWs)   bands (ev):

    -6.9557  -5.4305  -5.1792  -4.7102  -4.0198  -3.1290  -2.0722  -0.9353
    -0.4230   0.0935   0.3973   0.6431   1.1777   1.6673   1.9535   2.7193
     2.8990   3.6472

          k = 0.1250 0.5052 0.0000 (  5491 PWs)   bands (ev):

    -6.1770  -4.2514  -4.0066  -3.5447  -2.8712  -2.0588  -1.6310  -1.2111
    -1.0118  -0.8121  -0.5294  -0.0055   0.5200   1.1526   1.6136   2.0959
     2.4693   3.1649

          k = 0.1250 0.5774 0.0000 (  5460 PWs)   bands (ev):

    -5.8046  -3.0329  -2.9064  -2.7240  -2.6603  -2.3500  -2.1443  -1.7045
    -1.5304  -1.1427  -0.7782  -0.2981   0.4647   0.8482   1.7289   1.7467
     2.6208   2.9528

          k = 0.1875 0.3248 0.0000 (  5509 PWs)   bands (ev):

    -7.8565  -6.5389  -6.2802  -5.8084  -5.1140  -4.2130  -3.1358  -1.9598
    -0.8531  -0.0111   1.0344   2.1721   3.0838   3.4618   3.7439   3.8267
     4.0667   4.1942

          k = 0.1875 0.3969 0.0000 (  5493 PWs)   bands (ev):

    -7.0889  -5.6136  -5.3607  -4.8910  -4.1996  -3.3058  -2.2408  -1.0793
    -0.1062   0.2807   1.1398   1.5763   1.8962   2.3660   2.7229   2.8456
     3.0599   3.2932

          k = 0.1875 0.4691 0.0000 (  5470 PWs)   bands (ev):

    -6.2928  -4.5177  -4.2711  -3.8057  -3.1224  -2.2496  -1.2583  -0.6788
    -0.1704   0.0119   0.1061   0.4919   1.1002   1.5950   2.0568   2.2442
     2.4116   2.7515

          k = 0.1875 0.5413 0.0000 (  5454 PWs)   bands (ev):

    -5.6949  -3.2759  -3.0286  -2.5845  -2.0573  -1.8631  -1.6107  -1.2500
    -1.0663  -0.7299  -0.3983   0.1377   0.6912   1.3715   1.6227   2.1153
     2.2934   2.5189

          k = 0.2500 0.4330 0.0000 (  5491 PWs)   bands (ev):

    -6.3373  -4.6072  -4.3600  -3.8938  -3.2086  -2.3292  -1.2974  -0.2692
    -0.0015   0.8004   0.9793   1.1408   1.2486   1.3347   1.6422   2.0294
     2.4664   2.4945

          k = 0.2500 0.5052 0.0000 (  5430 PWs)   bands (ev):

    -5.6677  -3.4400  -3.1950  -2.7383  -2.0753  -1.2911  -0.8382  -0.4111
    -0.2779  -0.0224   0.1847   0.6225   0.7385   0.9665   1.1843   1.3220
     1.7319   2.0600

          k = 0.2500 0.5774 0.0000 (  5430 PWs)   bands (ev):

    -5.3727  -2.2175  -2.1076  -1.9087  -1.8566  -1.5438  -1.3420  -0.8961
    -0.7481  -0.3442  -0.0182   0.4471   0.5114   0.9153   1.1370   1.2564
     1.5031   1.6986

          k = 0.3125 0.5413 0.0000 (  5411 PWs)   bands (ev):

    -5.2646  -2.2198  -1.9602  -1.5322  -1.0361  -0.8803  -0.8110  -0.5749
    -0.5200  -0.2244  -0.1530  -0.0302   0.2991   0.4150   0.5547   0.8780
     1.0529   1.5442

     the Fermi energy is     2.0898 ev

!    total energy              =    -113.23542659 Ry
     Harris-Foulkes estimate   =    -113.23543734 Ry
     estimated scf accuracy    <       0.00000650 Ry

     The total energy is the sum of the following terms:

     one-electron contribution =   -1245.78274838 Ry
     hartree contribution      =     630.69347498 Ry
     xc contribution           =     -91.00360763 Ry
     ewald contribution        =     592.85663628 Ry
     smearing contrib. (-TS)   =       0.00081817 Ry

     convergence has been achieved in  16 iterations

     Forces acting on atoms (Ry/au):


     negative rho (up, down):  2.221E-05 0.000E+00
     atom    1 type  1   force =     0.00000000    0.00000000   -0.00190301
     atom    2 type  1   force =     0.00000000    0.00000000    0.00212068
     atom    3 type  1   force =     0.00000000    0.00000000   -0.00245234
     atom    4 type  1   force =     0.00000000    0.00000000   -0.00139461
     atom    5 type  1   force =     0.00000000    0.00000000    0.00174260
     atom    6 type  1   force =     0.00000000    0.00000000    0.00123716
     atom    7 type  1   force =     0.00000000   -0.00000000    0.02341734
     atom    8 type  1   force =     0.00000000    0.00000000    0.00558598
     atom    9 type  1   force =     0.00000000   -0.00000000   -0.04379244
     atom   10 type  2   force =    -0.00000000   -0.00000000    0.01543865

     Total force =     0.052501     Total SCF correction =     0.003505


     entering subroutine stress ...


     negative rho (up, down):  2.221E-05 0.000E+00
          total   stress  (Ry/bohr**3)                   (kbar)     P=    7.65
  -0.00000158   0.00000000   0.00000000         -0.23      0.00      0.00
   0.00000000  -0.00000158  -0.00000000          0.00     -0.23     -0.00
   0.00000000   0.00000000   0.00015915          0.00      0.00     23.41


     number of scf cycles    =   2
     number of bfgs steps    =   1

     energy   old            =    -113.0463336949 Ry
     energy   new            =    -113.2354265873 Ry

     CASE: energy  _new < energy  _old

     new trust radius        =       0.0442211792 bohr
     new conv_thr            =       0.0000039413 Ry


ATOMIC_POSITIONS (crystal)
Al       0.333333300   0.666666600   0.111059322
Al       0.666666600   0.333333300   0.055608265
Al       0.000000000   0.000000000  -0.000068342
Al       0.333333300   0.666666600   0.277757917
Al       0.666666600   0.333333300   0.222259034
Al      -0.000000000   0.000000000   0.166704714
Al       0.333333300   0.666666600   0.445009097
Al       0.666666600   0.333333300   0.382608746
Al      -0.000000000  -0.000000000   0.332748716
H        0.666666600   0.333333300   0.422979131



     Writing output data file Al_111_3_3.save
     NEW-OLD atomic charge density approx. for the potential

     negative rho (up, down):  2.423E-05 0.000E+00

     total cpu time spent up to now is      495.6 secs

     per-process dynamical memory:    97.9 Mb

     Self-consistent Calculation

     iteration #  1     ecut=    30.00 Ry     beta=0.30
     Davidson diagonalization with overlap
     ethr =  1.00E-06,  avg # of iterations =  5.8

     negative rho (up, down):  1.934E-05 0.000E+00

     total cpu time spent up to now is      519.6 secs

     total energy              =    -113.23808295 Ry
     Harris-Foulkes estimate   =    -113.23813542 Ry
     estimated scf accuracy    <       0.00403155 Ry

     iteration #  2     ecut=    30.00 Ry     beta=0.30
     Davidson diagonalization with overlap
     ethr =  1.44E-05,  avg # of iterations =  1.0

     negative rho (up, down):  1.284E-05 0.000E+00

     total cpu time spent up to now is      529.4 secs

     total energy              =    -113.23798681 Ry
     Harris-Foulkes estimate   =    -113.23808905 Ry
     estimated scf accuracy    <       0.00213439 Ry

     iteration #  3     ecut=    30.00 Ry     beta=0.30
     Davidson diagonalization with overlap
     ethr =  7.62E-06,  avg # of iterations =  1.0

     negative rho (up, down):  1.169E-05 0.000E+00

     total cpu time spent up to now is      541.3 secs

     total energy              =    -113.23803642 Ry
     Harris-Foulkes estimate   =    -113.23803669 Ry
     estimated scf accuracy    <       0.00001184 Ry

     iteration #  4     ecut=    30.00 Ry     beta=0.30
     Davidson diagonalization with overlap
     ethr =  4.23E-08,  avg # of iterations =  3.9

     negative rho (up, down):  1.159E-05 0.000E+00

     total cpu time spent up to now is      558.5 secs

     total energy              =    -113.23804042 Ry
     Harris-Foulkes estimate   =    -113.23804038 Ry
     estimated scf accuracy    <       0.00001398 Ry

     iteration #  5     ecut=    30.00 Ry     beta=0.30
     Davidson diagonalization with overlap
     ethr =  4.23E-08,  avg # of iterations =  1.0

     negative rho (up, down):  7.555E-06 0.000E+00

     total cpu time spent up to now is      572.6 secs

     total energy              =    -113.23803950 Ry
     Harris-Foulkes estimate   =    -113.23804046 Ry
     estimated scf accuracy    <       0.00001625 Ry

     iteration #  6     ecut=    30.00 Ry     beta=0.30
     Davidson diagonalization with overlap
     ethr =  4.23E-08,  avg # of iterations =  1.2

     negative rho (up, down):  2.219E-05 0.000E+00

     total cpu time spent up to now is      581.6 secs

     End of self-consistent calculation

          k = 0.0000 0.0000 0.0000 (  5537 PWs)   bands (ev):

   -10.1402  -9.1039  -8.8278  -8.3378  -7.6349  -6.7350  -5.6518  -4.4561
    -3.2915  -2.2632  -0.8425   0.6288   2.2124   3.8336   5.0982   5.7762
     6.0478   6.5942

          k = 0.0000 0.0722 0.0000 (  5524 PWs)   bands (ev):

   -10.0513  -9.0089  -8.7332  -8.2435  -7.5408  -6.6412  -5.5585  -4.3632
    -3.1993  -2.1748  -0.7561   0.7122   2.2954   3.9179   5.1811   5.8592
     6.1428   6.6782

          k = 0.0000 0.1443 0.0000 (  5500 PWs)   bands (ev):

    -9.7860  -8.7243  -8.4498  -7.9608  -7.2588  -6.3604  -5.2791  -4.0851
    -2.9239  -1.9113  -0.5006   0.9588   2.5399   4.1648   5.4119   6.0757
     6.4258   6.8805

          k = 0.0000 0.2165 0.0000 (  5496 PWs)   bands (ev):

    -9.3489  -8.2514  -7.9791  -7.4912  -6.7905  -5.8941  -4.8151  -3.6234
    -2.4679  -1.4761  -0.0873   1.3490   2.9152   4.5144   5.3982   5.9323
     6.4513   6.5801

          k = 0.0000 0.2887 0.0000 (  5490 PWs)   bands (ev):

    -8.7493  -7.5923  -7.3232  -6.8370  -6.1382  -5.2448  -4.1696  -2.9816
    -1.8377  -0.8825   0.4351   1.7789   3.1199   3.9290   4.3412   4.4864
     4.8760   5.3441

          k = 0.0000 0.3608 0.0000 (  5482 PWs)   bands (ev):

    -8.0066  -6.7507  -6.4858  -6.0020  -5.3058  -4.4168  -3.3479  -2.1670
    -1.0540  -0.2188   0.7190   1.6043   2.0548   2.5345   2.8975   3.3130
     3.5645   4.2522

          k = 0.0000 0.4330 0.0000 (  5488 PWs)   bands (ev):

    -7.1673  -5.7322  -5.4725  -4.9924  -4.3009  -3.4208  -2.3682  -1.2194
    -0.6386  -0.1835   0.1135   0.3737   0.9206   1.3912   1.6994   2.4740
     2.7073   3.4795

          k = 0.0000 0.5052 0.0000 (  5504 PWs)   bands (ev):

    -6.3631  -4.5483  -4.2939  -3.8233  -3.1493  -2.3407  -1.8970  -1.4967
    -1.3069  -1.1007  -0.8077  -0.2775   0.2497   0.8809   1.3505   1.8292
     2.2269   2.9545

          k = 0.0000-0.5774 0.0000 (  5484 PWs)   bands (ev):

    -5.9711  -3.3081  -3.1977  -3.0078  -2.9442  -2.6352  -2.4243  -2.0034
    -1.8050  -1.4303  -1.0593  -0.5788   0.1810   0.5613   1.4648   1.4758
     2.4042   2.7427

          k = 0.0625 0.1083 0.0000 (  5511 PWs)   bands (ev):

    -9.8742  -8.8191  -8.5442  -8.0549  -7.3527  -6.4539  -5.3722  -4.1776
    -3.0154  -1.9989  -0.5851   0.8776   2.4596   4.0841   5.3400   6.0131
     6.3321   6.8311

          k = 0.0625 0.1804 0.0000 (  5519 PWs)   bands (ev):

    -9.5230  -8.4403  -8.1672  -7.6788  -6.9776  -6.0804  -5.0005  -3.8076
    -2.6496  -1.6493  -0.2499   1.1979   2.7739   4.3968   5.5778   6.1386
     6.6976   6.8371

          k = 0.0625 0.2526 0.0000 (  5496 PWs)   bands (ev):

    -9.0042  -7.8743  -7.6038  -7.1169  -6.4172  -5.5225  -4.4455  -3.2558
    -2.1061  -1.1332   0.2261   1.6302   3.1520   4.5136   4.9575   5.4057
     5.6027   5.9454

          k = 0.0625 0.3248 0.0000 (  5488 PWs)   bands (ev):

    -8.3314  -7.1239  -6.8570  -6.3722  -5.6747  -4.7836  -3.7116  -2.5268
    -1.3955  -0.4811   0.7182   1.8875   2.7893   3.3012   3.6493   3.8865
     4.3317   4.5854

          k = 0.0625 0.3969 0.0000 (  5490 PWs)   bands (ev):

    -7.5346  -6.1935  -5.9314  -5.4494  -4.7553  -3.8701  -2.8074  -1.6345
    -0.5798  -0.0723   0.6391   1.0659   1.4387   1.9646   2.4862   2.6304
     3.4209   3.6731

          k = 0.0625 0.4691 0.0000 (  5501 PWs)   bands (ev):

    -6.6909  -5.0906  -4.8340  -4.3577  -3.6714  -2.8036  -1.7968  -1.1696
    -0.7197  -0.5300  -0.4252  -0.0104   0.6319   1.1458   1.6571   1.8148
     2.6901   3.1742

          k = 0.0625 0.5413 0.0000 (  5499 PWs)   bands (ev):

    -6.0313  -3.8373  -3.5833  -3.1314  -2.6005  -2.4128  -2.1641  -1.8142
    -1.6117  -1.2855  -0.9325  -0.4014   0.1718   0.8976   1.1614   1.9514
     2.2586   2.8487

          k = 0.1250 0.2165 0.0000 (  5513 PWs)   bands (ev):

    -9.0897  -7.9685  -7.6975  -7.2103  -6.5104  -5.6153  -4.5377  -3.3474
    -2.1961  -1.2178   0.1522   1.5704   3.1216   4.6929   5.3075   5.9117
     6.5246   6.5830

          k = 0.1250 0.2887 0.0000 (  5487 PWs)   bands (ev):

    -8.4964  -7.3110  -7.0432  -6.5578  -5.8598  -4.9676  -3.8941  -2.7079
    -1.5700  -0.6325   0.6493   1.9657   3.2920   4.1366   4.5231   4.6682
     5.0402   5.3056

          k = 0.1250 0.3608 0.0000 (  5494 PWs)   bands (ev):

    -7.7639  -6.4715  -6.2078  -5.7249  -5.0296  -4.1422  -3.0755  -1.8966
    -0.7944   0.0008   0.9109   1.8472   2.2960   2.7566   3.1195   3.5101
     3.7622   4.3690

          k = 0.1250 0.4330 0.0000 (  5496 PWs)   bands (ev):

    -6.9410  -5.4555  -5.1968  -4.7179  -4.0275  -3.1497  -2.1011  -0.9572
    -0.4202   0.0767   0.3734   0.6241   1.1611   1.6475   1.9461   2.6989
     2.8834   3.6267

          k = 0.1250 0.5052 0.0000 (  5491 PWs)   bands (ev):

    -6.1624  -4.2745  -4.0205  -3.5516  -2.8804  -2.0770  -1.6289  -1.2267
    -1.0445  -0.8328  -0.5466  -0.0191   0.5018   1.1325   1.5929   2.0676
     2.4485   3.1442

          k = 0.1250 0.5774 0.0000 (  5460 PWs)   bands (ev):

    -5.7900  -3.0346  -2.9273  -2.7345  -2.6736  -2.3650  -2.1528  -1.7305
    -1.5383  -1.1605  -0.7962  -0.3135   0.4378   0.8184   1.7054   1.7217
     2.5989   2.9323

          k = 0.1875 0.3248 0.0000 (  5509 PWs)   bands (ev):

    -7.8416  -6.5643  -6.3001  -5.8169  -5.1213  -4.2331  -3.1652  -1.9850
    -0.8737  -0.0288   1.0207   2.1592   3.0706   3.4492   3.7297   3.8223
     4.0555   4.1726

          k = 0.1875 0.3969 0.0000 (  5493 PWs)   bands (ev):

    -7.0741  -5.6387  -5.3789  -4.8989  -4.2072  -3.3263  -2.2701  -1.1038
    -0.1222   0.2754   1.1262   1.5548   1.8794   2.3592   2.7080   2.8375
     3.0478   3.2792

          k = 0.1875 0.4691 0.0000 (  5470 PWs)   bands (ev):

    -6.2781  -4.5418  -4.2865  -3.8129  -3.1309  -2.2709  -1.2821  -0.6731
    -0.1966  -0.0099   0.0831   0.4804   1.0857   1.5826   2.0427   2.2282
     2.4047   2.7356

          k = 0.1875 0.5413 0.0000 (  5454 PWs)   bands (ev):

    -5.6802  -3.2948  -3.0395  -2.5915  -2.0625  -1.8768  -1.6214  -1.2728
    -1.0853  -0.7491  -0.4113   0.1178   0.6698   1.3486   1.6001   2.1225
     2.2714   2.4928

          k = 0.2500 0.4330 0.0000 (  5491 PWs)   bands (ev):

    -6.3226  -4.6315  -4.3759  -3.9011  -3.2169  -2.3504  -1.3254  -0.2770
    -0.0155   0.7845   0.9796   1.1156   1.2334   1.3207   1.6275   2.0151
     2.4458   2.4765

          k = 0.2500 0.5052 0.0000 (  5430 PWs)   bands (ev):

    -5.6529  -3.4614  -3.2074  -2.7452  -2.0856  -1.3095  -0.8368  -0.4286
    -0.3052  -0.0433   0.1738   0.6175   0.7296   0.9477   1.1649   1.3031
     1.7092   2.0435

          k = 0.2500 0.5774 0.0000 (  5430 PWs)   bands (ev):

    -5.3577  -2.2185  -2.1263  -1.9192  -1.8691  -1.5588  -1.3506  -0.9221
    -0.7566  -0.3623  -0.0358   0.4316   0.5179   0.9009   1.1100   1.2332
     1.4746   1.6802

          k = 0.3125 0.5413 0.0000 (  5411 PWs)   bands (ev):

    -5.2495  -2.2337  -1.9700  -1.5408  -1.0427  -0.8832  -0.8230  -0.5871
    -0.5311  -0.2490  -0.1724  -0.0420   0.2828   0.3887   0.5427   0.8605
     1.0341   1.5242

     the Fermi energy is     2.0733 ev

!    total energy              =    -113.23803756 Ry
     Harris-Foulkes estimate   =    -113.23803999 Ry
     estimated scf accuracy    <       0.00000276 Ry

     The total energy is the sum of the following terms:

     one-electron contribution =   -1245.28980350 Ry
     hartree contribution      =     630.46502940 Ry
     xc contribution           =     -90.99861747 Ry
     ewald contribution        =     592.58456511 Ry
     smearing contrib. (-TS)   =       0.00078889 Ry

     convergence has been achieved in   6 iterations

     Forces acting on atoms (Ry/au):


     negative rho (up, down):  2.219E-05 0.000E+00
     atom    1 type  1   force =     0.00000000   -0.00000000   -0.00147950
     atom    2 type  1   force =     0.00000000    0.00000000    0.00168418
     atom    3 type  1   force =     0.00000000    0.00000000   -0.00204994
     atom    4 type  1   force =     0.00000000   -0.00000000   -0.00358495
     atom    5 type  1   force =     0.00000000    0.00000000    0.00155539
     atom    6 type  1   force =     0.00000000    0.00000000    0.00115465
     atom    7 type  1   force =    -0.00000000   -0.00000000    0.02296493
     atom    8 type  1   force =     0.00000000    0.00000000    0.00246177
     atom    9 type  1   force =     0.00000000   -0.00000000   -0.03634482
     atom   10 type  2   force =    -0.00000000   -0.00000000    0.01363827

     Total force =     0.045456     Total SCF correction =     0.002149


     entering subroutine stress ...


     negative rho (up, down):  2.219E-05 0.000E+00
          total   stress  (Ry/bohr**3)                   (kbar)     P=    6.98
  -0.00000507   0.00000000   0.00000000         -0.75      0.00      0.00
   0.00000000  -0.00000507  -0.00000000          0.00     -0.75     -0.00
   0.00000000   0.00000000   0.00015253          0.00      0.00     22.44


     number of scf cycles    =   3
     number of bfgs steps    =   2

     energy   old            =    -113.2354265873 Ry
     energy   new            =    -113.2380375648 Ry

     CASE: energy  _new < energy  _old


     WARNING: bfgs curvature condition failed, Theta= 0.927
     new trust radius        =       0.0486432971 bohr
     new conv_thr            =       0.0000023499 Ry


ATOMIC_POSITIONS (crystal)
Al       0.333333300   0.666666600   0.111033907
Al       0.666666600   0.333333300   0.055637079
Al       0.000000000   0.000000000  -0.000103161
Al       0.333333300   0.666666600   0.277703379
Al       0.666666600   0.333333300   0.222285153
Al       0.000000000   0.000000000   0.166724027
Al       0.333333300   0.666666600   0.445390040
Al       0.666666600   0.333333300   0.382632302
Al      -0.000000000  -0.000000000   0.332133061
H        0.666666600   0.333333300   0.423230813



     Writing output data file Al_111_3_3.save
     NEW-OLD atomic charge density approx. for the potential

     negative rho (up, down):  2.443E-05 0.000E+00

     total cpu time spent up to now is      591.0 secs

     per-process dynamical memory:    97.9 Mb

     Self-consistent Calculation

     iteration #  1     ecut=    30.00 Ry     beta=0.30
     Davidson diagonalization with overlap
     ethr =  1.00E-06,  avg # of iterations =  5.7

     negative rho (up, down):  2.954E-05 0.000E+00

     total cpu time spent up to now is      617.8 secs

     total energy              =    -113.24076172 Ry
     Harris-Foulkes estimate   =    -113.24093287 Ry
     estimated scf accuracy    <       0.01308392 Ry

     iteration #  2     ecut=    30.00 Ry     beta=0.30
     Davidson diagonalization with overlap
     ethr =  4.67E-05,  avg # of iterations =  1.0

     negative rho (up, down):  9.689E-05 0.000E+00

     total cpu time spent up to now is      629.4 secs

     total energy              =    -113.24039388 Ry
     Harris-Foulkes estimate   =    -113.24077986 Ry
     estimated scf accuracy    <       0.00750456 Ry

     iteration #  3     ecut=    30.00 Ry     beta=0.30
     Davidson diagonalization with overlap
     ethr =  2.68E-05,  avg # of iterations =  1.5

     negative rho (up, down):  1.014E-04 0.000E+00

     total cpu time spent up to now is      638.2 secs

     total energy              =    -113.24059744 Ry
     Harris-Foulkes estimate   =    -113.24060684 Ry
     estimated scf accuracy    <       0.00014896 Ry

     iteration #  4     ecut=    30.00 Ry     beta=0.30
     Davidson diagonalization with overlap
     ethr =  5.32E-07,  avg # of iterations =  2.6

     negative rho (up, down):  1.441E-04 0.000E+00

     total cpu time spent up to now is      647.6 secs

     total energy              =    -113.24060888 Ry
     Harris-Foulkes estimate   =    -113.24061195 Ry
     estimated scf accuracy    <       0.00004873 Ry

     iteration #  5     ecut=    30.00 Ry     beta=0.30
     Davidson diagonalization with overlap
     ethr =  1.74E-07,  avg # of iterations =  1.8

     negative rho (up, down):  1.419E-04 0.000E+00

     total cpu time spent up to now is      656.2 secs

     total energy              =    -113.24060987 Ry
     Harris-Foulkes estimate   =    -113.24061152 Ry
     estimated scf accuracy    <       0.00002543 Ry

     iteration #  6     ecut=    30.00 Ry     beta=0.30
     Davidson diagonalization with overlap
     ethr =  9.08E-08,  avg # of iterations =  1.5

     negative rho (up, down):  1.313E-04 0.000E+00

     total cpu time spent up to now is      667.1 secs

     total energy              =    -113.24061083 Ry
     Harris-Foulkes estimate   =    -113.24061098 Ry
     estimated scf accuracy    <       0.00000548 Ry

     iteration #  7     ecut=    30.00 Ry     beta=0.30
     Davidson diagonalization with overlap
     ethr =  1.96E-08,  avg # of iterations =  1.2

     negative rho (up, down):  9.321E-05 0.000E+00

     total cpu time spent up to now is      677.5 secs

     total energy              =    -113.24061041 Ry
     Harris-Foulkes estimate   =    -113.24061090 Ry
     estimated scf accuracy    <       0.00000271 Ry

     iteration #  8     ecut=    30.00 Ry     beta=0.30
     Davidson diagonalization with overlap
     ethr =  9.69E-09,  avg # of iterations =  2.1

     negative rho (up, down):  2.203E-05 0.000E+00

     total cpu time spent up to now is      686.7 secs

     End of self-consistent calculation

          k = 0.0000 0.0000 0.0000 (  5537 PWs)   bands (ev):

   -10.0878  -9.1053  -8.8252  -8.3207  -7.6142  -6.7275  -5.6559  -4.4565
    -3.2878  -2.2600  -0.8393   0.6201   2.2091   3.8343   5.0968   5.7821
     6.0345   6.5849

          k = 0.0000 0.0722 0.0000 (  5524 PWs)   bands (ev):

    -9.9989  -9.0103  -8.7306  -8.2263  -7.5201  -6.6337  -5.5625  -4.3635
    -3.1957  -2.1716  -0.7529   0.7037   2.2923   3.9187   5.1797   5.8652
     6.1297   6.6689

          k = 0.0000 0.1443 0.0000 (  5500 PWs)   bands (ev):

    -9.7335  -8.7258  -8.4470  -7.9435  -7.2381  -6.3530  -5.2832  -4.0854
    -2.9203  -1.9080  -0.4973   0.9508   2.5377   4.1657   5.4114   6.0837
     6.4133   6.8753

          k = 0.0000 0.2165 0.0000 (  5496 PWs)   bands (ev):

    -9.2962  -8.2530  -7.9757  -7.4736  -6.7698  -5.8867  -4.8192  -3.6237
    -2.4644  -1.4725  -0.0838   1.3427   2.9158   4.5171   5.4216   5.9413
     6.4511   6.5879

          k = 0.0000 0.2887 0.0000 (  5490 PWs)   bands (ev):

    -8.6963  -7.5942  -7.3191  -6.8191  -6.1176  -5.2375  -4.1736  -2.9817
    -1.8344  -0.8785   0.4402   1.7807   3.1361   3.9414   4.3432   4.4927
     4.8908   5.3546

          k = 0.0000 0.3608 0.0000 (  5482 PWs)   bands (ev):

    -7.9534  -6.7527  -6.4805  -5.9835  -5.2852  -4.4097  -3.3518  -2.1669
    -1.0508  -0.2104   0.7396   1.6179   2.0597   2.5390   2.9146   3.3177
     3.5787   4.2585

          k = 0.0000 0.4330 0.0000 (  5488 PWs)   bands (ev):

    -7.1135  -5.7341  -5.4651  -4.9731  -4.2806  -3.4141  -2.3714  -1.2162
    -0.6055  -0.1754   0.1140   0.3797   0.9302   1.3973   1.7199   2.4815
     2.7149   3.4756

          k = 0.0000 0.5052 0.0000 (  5504 PWs)   bands (ev):

    -6.3086  -4.5488  -4.2826  -3.8026  -3.1299  -2.3308  -1.8670  -1.4847
    -1.3150  -1.0952  -0.7988  -0.2658   0.2577   0.8880   1.3545   1.8256
     2.2306   2.9548

          k = 0.0000-0.5774 0.0000 (  5484 PWs)   bands (ev):

    -5.9159  -3.2866  -3.1963  -2.9894  -2.9316  -2.6215  -2.4051  -2.0018
    -1.7847  -1.4210  -1.0500  -0.5678   0.1792   0.5565   1.4650   1.4764
     2.4048   2.7481

          k = 0.0625 0.1083 0.0000 (  5511 PWs)   bands (ev):

    -9.8217  -8.8206  -8.5414  -8.0377  -7.3320  -6.4465  -5.3762  -4.1780
    -3.0119  -1.9956  -0.5819   0.8694   2.4571   4.0849   5.3390   6.0201
     6.3194   6.8228

          k = 0.0625 0.1804 0.0000 (  5519 PWs)   bands (ev):

    -9.4704  -8.4419  -8.1640  -7.6613  -6.9569  -6.0730  -5.0046  -3.8079
    -2.6461  -1.6459  -0.2465   1.1907   2.7730   4.3982   5.5817   6.1545
     6.6873   6.8493

          k = 0.0625 0.2526 0.0000 (  5496 PWs)   bands (ev):

    -8.9513  -7.8761  -7.6000  -7.0991  -6.3966  -5.5151  -4.4496  -3.2560
    -2.1028  -1.1294   0.2302   1.6266   3.1579   4.5300   4.9716   5.4071
     5.6086   5.9661

          k = 0.0625 0.3248 0.0000 (  5488 PWs)   bands (ev):

    -8.2783  -7.1259  -6.8523  -6.3540  -5.6542  -4.7764  -3.7155  -2.5269
    -1.3923  -0.4761   0.7275   1.9026   2.7989   3.3098   3.6516   3.9059
     4.3328   4.6014

          k = 0.0625 0.3969 0.0000 (  5490 PWs)   bands (ev):

    -7.4811  -6.1955  -5.9251  -5.4305  -4.7349  -3.8632  -2.8111  -1.6340
    -0.5758  -0.0463   0.6553   1.0686   1.4415   1.9770   2.5013   2.6466
     3.4287   3.6681

          k = 0.0625 0.4691 0.0000 (  5501 PWs)   bands (ev):

    -6.6367  -5.0921  -4.8249  -4.3377  -3.6514  -2.7971  -1.7955  -1.1311
    -0.7211  -0.5259  -0.4258   0.0019   0.6438   1.1586   1.6611   1.8226
     2.6859   3.1806

          k = 0.0625 0.5413 0.0000 (  5499 PWs)   bands (ev):

    -5.9763  -3.8347  -3.5684  -3.1097  -2.5773  -2.4019  -2.1467  -1.8102
    -1.6029  -1.2777  -0.9188  -0.3959   0.1771   0.8967   1.1591   1.9543
     2.2588   2.8524

          k = 0.1250 0.2165 0.0000 (  5513 PWs)   bands (ev):

    -9.0370  -7.9702  -7.6938  -7.1926  -6.4898  -5.6079  -4.5418  -3.3476
    -2.1927  -1.2142   0.1561   1.5656   3.1248   4.6988   5.3293   5.9224
     6.5343   6.6156

          k = 0.1250 0.2887 0.0000 (  5487 PWs)   bands (ev):

    -8.4434  -7.3129  -7.0387  -6.5397  -5.8392  -4.9603  -3.8980  -2.7080
    -1.5667  -0.6281   0.6553   1.9701   3.3092   4.1483   4.5246   4.6810
     5.0578   5.3150

          k = 0.1250 0.3608 0.0000 (  5494 PWs)   bands (ev):

    -7.7105  -6.4735  -6.2020  -5.7062  -5.0091  -4.1352  -3.0793  -1.8964
    -0.7914   0.0106   0.9311   1.8605   2.3010   2.7630   3.1388   3.5164
     3.7780   4.3838

          k = 0.1250 0.4330 0.0000 (  5496 PWs)   bands (ev):

    -6.8870  -5.4573  -5.1890  -4.6984  -4.0073  -3.1430  -2.1042  -0.9533
    -0.3885   0.0852   0.3737   0.6312   1.1714   1.6543   1.9663   2.7057
     2.8931   3.6321

          k = 0.1250 0.5052 0.0000 (  5491 PWs)   bands (ev):

    -6.1077  -4.2747  -4.0087  -3.5309  -2.8611  -2.0672  -1.5990  -1.2148
    -1.0526  -0.8272  -0.5373  -0.0073   0.5099   1.1395   1.5973   2.0648
     2.4528   3.1489

          k = 0.1250 0.5774 0.0000 (  5460 PWs)   bands (ev):

    -5.7346  -3.0128  -2.9256  -2.7160  -2.6607  -2.3513  -2.1336  -1.7291
    -1.5180  -1.1513  -0.7869  -0.3025   0.4360   0.8140   1.7065   1.7224
     2.5997   2.9377

          k = 0.1875 0.3248 0.0000 (  5509 PWs)   bands (ev):

    -7.7883  -6.5663  -6.2946  -5.7984  -5.1008  -4.2260  -3.1691  -1.9849
    -0.8706  -0.0216   1.0349   2.1758   3.0833   3.4603   3.7402   3.8466
     4.0732   4.1746

          k = 0.1875 0.3969 0.0000 (  5493 PWs)   bands (ev):

    -7.0203  -5.6406  -5.3716  -4.8796  -4.1869  -3.3196  -2.2736  -1.1028
    -0.1155   0.3004   1.1402   1.5579   1.8889   2.3797   2.7175   2.8582
     3.0629   3.2927

          k = 0.1875 0.4691 0.0000 (  5470 PWs)   bands (ev):

    -6.2235  -4.5429  -4.2763  -3.7926  -3.1111  -2.2647  -1.2795  -0.6365
    -0.1988  -0.0074   0.0854   0.4949   1.0982   1.5974   2.0550   2.2383
     2.4257   2.7467

          k = 0.1875 0.5413 0.0000 (  5454 PWs)   bands (ev):

    -5.6246  -3.2911  -3.0239  -2.5700  -2.0396  -1.8655  -1.6041  -1.2694
    -1.0759  -0.7412  -0.3975   0.1235   0.6747   1.3513   1.6030   2.1597
     2.2736   2.4915

          k = 0.2500 0.4330 0.0000 (  5491 PWs)   bands (ev):

    -6.2680  -4.6328  -4.3661  -3.8810  -3.1970  -2.3442  -1.3271  -0.2567
    -0.0027   0.7935   1.0041   1.1136   1.2459   1.3347   1.6412   2.0287
     2.4503   2.4862

          k = 0.2500 0.5052 0.0000 (  5430 PWs)   bands (ev):

    -5.5973  -3.4601  -3.1938  -2.7242  -2.0673  -1.2998  -0.8075  -0.4200
    -0.3071  -0.0382   0.1894   0.6390   0.7461   0.9565   1.1710   1.3126
     1.7138   2.0539

          k = 0.2500 0.5774 0.0000 (  5430 PWs)   bands (ev):

    -5.3014  -2.1961  -2.1225  -1.9008  -1.8552  -1.5453  -1.3313  -0.9208
    -0.7369  -0.3535  -0.0257   0.4412   0.5526   0.9145   1.1077   1.2363
     1.4727   1.6891

          k = 0.3125 0.5413 0.0000 (  5411 PWs)   bands (ev):

    -5.1929  -2.2253  -1.9527  -1.5204  -1.0213  -0.8634  -0.8091  -0.5707
    -0.5144  -0.2485  -0.1626  -0.0251   0.2935   0.3897   0.5577   0.8693
     1.0419   1.5319

     the Fermi energy is     2.0832 ev

!    total energy              =    -113.24060961 Ry
     Harris-Foulkes estimate   =    -113.24061056 Ry
     estimated scf accuracy    <       0.00000084 Ry

     The total energy is the sum of the following terms:

     one-electron contribution =   -1244.60275116 Ry
     hartree contribution      =     630.10747232 Ry
     xc contribution           =     -90.99239150 Ry
     ewald contribution        =     592.24631007 Ry
     smearing contrib. (-TS)   =       0.00075065 Ry

     convergence has been achieved in   8 iterations

     Forces acting on atoms (Ry/au):


     negative rho (up, down):  2.203E-05 0.000E+00
     atom    1 type  1   force =     0.00000000    0.00000000   -0.00114413
     atom    2 type  1   force =     0.00000000    0.00000000    0.00118230
     atom    3 type  1   force =     0.00000000   -0.00000000   -0.00173336
     atom    4 type  1   force =     0.00000000   -0.00000000   -0.00585623
     atom    5 type  1   force =     0.00000000    0.00000000    0.00114242
     atom    6 type  1   force =     0.00000000   -0.00000000    0.00095473
     atom    7 type  1   force =     0.00000000    0.00000000    0.02234208
     atom    8 type  1   force =     0.00000000    0.00000000   -0.00001625
     atom    9 type  1   force =     0.00000000    0.00000000   -0.02902945
     atom   10 type  2   force =     0.00000000    0.00000000    0.01215790

     Total force =     0.039140     Total SCF correction =     0.001685


     entering subroutine stress ...


     negative rho (up, down):  2.203E-05 0.000E+00
          total   stress  (Ry/bohr**3)                   (kbar)     P=    6.26
  -0.00000849   0.00000000   0.00000000         -1.25      0.00      0.00
   0.00000000  -0.00000849  -0.00000000          0.00     -1.25     -0.00
  -0.00000000  -0.00000000   0.00014472         -0.00     -0.00     21.29


     number of scf cycles    =   4
     number of bfgs steps    =   3

     energy   old            =    -113.2380375648 Ry
     energy   new            =    -113.2406096136 Ry

     CASE: energy  _new < energy  _old

     new trust radius        =       0.0729649457 bohr
     new conv_thr            =       0.0000023148 Ry


ATOMIC_POSITIONS (crystal)
Al       0.333333300   0.666666600   0.110996474
Al       0.666666600   0.333333300   0.055676846
Al       0.000000000  -0.000000000  -0.000157447
Al       0.333333300   0.666666600   0.277559780
Al       0.666666600   0.333333300   0.222321997
Al       0.000000000   0.000000000   0.166753516
Al       0.333333300   0.666666600   0.446043521
Al       0.666666600   0.333333300   0.382630190
Al      -0.000000000  -0.000000000   0.331209580
H        0.666666600   0.333333300   0.423632143



     Writing output data file Al_111_3_3.save
     NEW-OLD atomic charge density approx. for the potential

     negative rho (up, down):  2.679E-05 0.000E+00

     total cpu time spent up to now is      693.6 secs

     per-process dynamical memory:    97.9 Mb

     Self-consistent Calculation

     iteration #  1     ecut=    30.00 Ry     beta=0.30
     Davidson diagonalization with overlap
     ethr =  1.00E-06,  avg # of iterations =  7.1

     negative rho (up, down):  2.147E-05 0.000E+00

     total cpu time spent up to now is      714.8 secs

     total energy              =    -113.24412535 Ry
     Harris-Foulkes estimate   =    -113.24439442 Ry
     estimated scf accuracy    <       0.01250662 Ry

     iteration #  2     ecut=    30.00 Ry     beta=0.30
     Davidson diagonalization with overlap
     ethr =  4.47E-05,  avg # of iterations =  1.0

     negative rho (up, down):  1.561E-05 0.000E+00

     total cpu time spent up to now is      723.4 secs

     total energy              =    -113.24360585 Ry
     Harris-Foulkes estimate   =    -113.24415447 Ry
     estimated scf accuracy    <       0.00684155 Ry

     iteration #  3     ecut=    30.00 Ry     beta=0.30
     Davidson diagonalization with overlap
     ethr =  2.44E-05,  avg # of iterations =  1.2

     negative rho (up, down):  1.477E-05 0.000E+00

     total cpu time spent up to now is      732.1 secs

     total energy              =    -113.24388958 Ry
     Harris-Foulkes estimate   =    -113.24389532 Ry
     estimated scf accuracy    <       0.00008772 Ry

     iteration #  4     ecut=    30.00 Ry     beta=0.30
     Davidson diagonalization with overlap
     ethr =  3.13E-07,  avg # of iterations =  3.6

     negative rho (up, down):  1.409E-05 0.000E+00

     total cpu time spent up to now is      742.0 secs

     total energy              =    -113.24390506 Ry
     Harris-Foulkes estimate   =    -113.24390546 Ry
     estimated scf accuracy    <       0.00001565 Ry

     iteration #  5     ecut=    30.00 Ry     beta=0.30
     Davidson diagonalization with overlap
     ethr =  5.59E-08,  avg # of iterations =  1.3

     negative rho (up, down):  1.297E-05 0.000E+00

     total cpu time spent up to now is      750.6 secs

     total energy              =    -113.24390424 Ry
     Harris-Foulkes estimate   =    -113.24390530 Ry
     estimated scf accuracy    <       0.00000808 Ry

     iteration #  6     ecut=    30.00 Ry     beta=0.30
     Davidson diagonalization with overlap
     ethr =  2.88E-08,  avg # of iterations =  1.2

     negative rho (up, down):  2.174E-05 0.000E+00

     total cpu time spent up to now is      758.2 secs

     End of self-consistent calculation

          k = 0.0000 0.0000 0.0000 (  5537 PWs)   bands (ev):

   -10.0114  -9.1236  -8.8338  -8.3104  -7.5985  -6.7285  -5.6744  -4.4706
    -3.2955  -2.2682  -0.8494   0.5919   2.1919   3.8206   5.0779   5.7740
     6.0514   6.5951

          k = 0.0000 0.0722 0.0000 (  5524 PWs)   bands (ev):

    -9.9224  -9.0287  -8.7390  -8.2159  -7.5043  -6.6347  -5.5811  -4.3776
    -3.2034  -2.1798  -0.7630   0.6758   2.2754   3.9051   5.1609   5.8576
     6.1465   6.6800

          k = 0.0000 0.1443 0.0000 (  5500 PWs)   bands (ev):

    -9.6568  -8.7444  -8.4551  -7.9329  -7.2224  -6.3540  -5.3017  -4.0994
    -2.9281  -1.9161  -0.5072   0.9239   2.5221   4.1524   5.3937   6.0798
     6.4294   6.8925

          k = 0.0000 0.2165 0.0000 (  5496 PWs)   bands (ev):

    -9.2190  -8.2718  -7.9833  -7.4628  -6.7540  -5.8878  -4.8376  -3.6376
    -2.4724  -1.4804  -0.0932   1.3186   2.9045   4.5065   5.4426   5.9460
     6.4325   6.5887

          k = 0.0000 0.2887 0.0000 (  5490 PWs)   bands (ev):

    -8.6182  -7.6133  -7.3258  -6.8078  -6.1018  -5.2387  -4.1920  -2.9956
    -1.8427  -0.8855   0.4335   1.7698   3.1477   3.9464   4.3345   4.4901
     4.8980   5.3540

          k = 0.0000 0.3608 0.0000 (  5482 PWs)   bands (ev):

    -7.8741  -6.7722  -6.4857  -5.9715  -5.2694  -4.4110  -3.3700  -2.1804
    -1.0594  -0.2108   0.7582   1.6250   2.0535   2.5341   2.9246   3.3100
     3.5863   4.2559

          k = 0.0000 0.4330 0.0000 (  5488 PWs)   bands (ev):

    -7.0325  -5.7536  -5.4680  -4.9599  -4.2649  -3.4158  -2.3885  -1.2256
    -0.5651  -0.1766   0.0994   0.3759   0.9311   1.3946   1.7355   2.4804
     2.7128   3.4571

          k = 0.0000 0.5052 0.0000 (  5504 PWs)   bands (ev):

    -6.2250  -4.5664  -4.2808  -3.7872  -3.1144  -2.3276  -1.8388  -1.4790
    -1.3381  -1.0988  -0.7979  -0.2631   0.2563   0.8862   1.3478   1.8076
     2.2233   2.9415

          k = 0.0000-0.5774 0.0000 (  5484 PWs)   bands (ev):

    -5.8304  -3.2767  -3.2116  -2.9746  -2.9283  -2.6110  -2.3914  -2.0076
    -1.7689  -1.4188  -1.0482  -0.5637   0.1641   0.5367   1.4508   1.4645
     2.3920   2.7439

          k = 0.0625 0.1083 0.0000 (  5511 PWs)   bands (ev):

    -9.7451  -8.8391  -8.5497  -8.0272  -7.3163  -6.4475  -5.3947  -4.1920
    -3.0197  -2.0037  -0.5918   0.8421   2.4410   4.0715   5.3206   6.0141
     6.3357   6.8370

          k = 0.0625 0.1804 0.0000 (  5519 PWs)   bands (ev):

    -9.3933  -8.4607  -8.1718  -7.6506  -6.9411  -6.0741  -5.0230  -3.8219
    -2.6540  -1.6538  -0.2561   1.1651   2.7594   4.3855   5.5703   6.1668
     6.7009   6.8747

          k = 0.0625 0.2526 0.0000 (  5496 PWs)   bands (ev):

    -8.8736  -7.8951  -7.6071  -7.0880  -6.3808  -5.5162  -4.4680  -3.2699
    -2.1109  -1.1369   0.2217   1.6070   3.1544   4.5403   4.9844   5.3947
     5.6023   5.9809

          k = 0.0625 0.3248 0.0000 (  5488 PWs)   bands (ev):

    -8.1996  -7.1452  -6.8583  -6.3423  -5.6384  -4.7776  -3.7338  -2.5406
    -1.4008  -0.4816   0.7276   1.9132   2.7993   3.3091   3.6434   3.9198
     4.3201   4.6127

          k = 0.0625 0.3969 0.0000 (  5490 PWs)   bands (ev):

    -7.4010  -6.2150  -5.9292  -5.4180  -4.7191  -3.8647  -2.8290  -1.6468
    -0.5829  -0.0192   0.6678   1.0576   1.4334   1.9818   2.5098   2.6575
     3.4283   3.6451

          k = 0.0625 0.4691 0.0000 (  5501 PWs)   bands (ev):

    -6.5544  -5.1111  -4.8257  -4.3236  -3.6358  -2.7989  -1.8064  -1.0844
    -0.7366  -0.5351  -0.4377   0.0059   0.6477   1.1645   1.6553   1.8217
     2.6671   3.1756

          k = 0.0625 0.5413 0.0000 (  5499 PWs)   bands (ev):

    -5.8912  -3.8485  -3.5620  -3.0916  -2.5565  -2.4022  -2.1349  -1.8146
    -1.6009  -1.2767  -0.9128  -0.4001   0.1726   0.8821   1.1431   1.9452
     2.2458   2.8446

          k = 0.1250 0.2165 0.0000 (  5513 PWs)   bands (ev):

    -8.9593  -7.9892  -7.7011  -7.1816  -6.4740  -5.6090  -4.5602  -3.3616
    -2.2008  -1.2217   0.1472   1.5441   3.1173   4.6930   5.3542   5.9242
     6.5281   6.6502

          k = 0.1250 0.2887 0.0000 (  5487 PWs)   bands (ev):

    -8.3649  -7.3321  -7.0450  -6.5282  -5.8234  -4.9615  -3.9164  -2.7218
    -1.5751  -0.6346   0.6501   1.9638   3.3234   4.1526   4.5137   4.6856
     5.0696   5.3117

          k = 0.1250 0.3608 0.0000 (  5494 PWs)   bands (ev):

    -7.6308  -6.4930  -6.2068  -5.6939  -4.9933  -4.1366  -3.0974  -1.9098
    -0.8000   0.0126   0.9498   1.8673   2.2944   2.7599   3.1520   3.5116
     3.7880   4.3923

          k = 0.1250 0.4330 0.0000 (  5496 PWs)   bands (ev):

    -6.8056  -5.4767  -5.1913  -4.6850  -3.9916  -3.1448  -2.1211  -0.9620
    -0.3498   0.0844   0.3586   0.6288   1.1733   1.6524   1.9817   2.7040
     2.8937   3.6255

          k = 0.1250 0.5052 0.0000 (  5491 PWs)   bands (ev):

    -6.0235  -4.2920  -4.0064  -3.5153  -2.8459  -2.0640  -1.5708  -1.2095
    -1.0755  -0.8308  -0.5360  -0.0045   0.5087   1.1375   1.5910   2.0479
     2.4464   3.1409

[...]
    -1.3017  -0.8875  -0.6254  -0.1762   0.4470   0.8123   1.5699   1.6776
     2.3957   2.9139

          k = 0.1875 0.3248 0.0000 (  5509 PWs)   bands (ev):

    -6.5453  -6.3814  -6.0750  -5.5620  -4.8914  -4.0992  -3.1486  -2.0729
    -1.0194  -0.0965   1.0343   2.3673   3.3489   3.6842   3.9645   4.1733
     4.2218   4.4250

          k = 0.1875 0.3969 0.0000 (  5493 PWs)   bands (ev):

    -5.7016  -5.4669  -5.1571  -4.6437  -3.9749  -3.1865  -2.2418  -1.1816
    -0.2388   0.5260   1.4402   1.7375   2.1036   2.6280   2.9136   3.1504
     3.2866   3.5021

          k = 0.1875 0.4691 0.0000 (  5470 PWs)   bands (ev):

    -4.8071  -4.3672  -4.0630  -3.5545  -2.8921  -2.1138  -1.1868  -0.2164
    -0.0270   0.0677   0.2470   0.6231   1.2345   1.7606   2.2116   2.3382
     2.7488   2.9169

          k = 0.1875 0.5413 0.0000 (  5454 PWs)   bands (ev):

    -4.0957  -3.0888  -2.7990  -2.3115  -1.7087  -1.6325  -1.3655  -0.9846
    -0.8792  -0.4824  -0.2047   0.1912   0.7507   1.3294   1.6524   2.1786
     2.4876   2.6666

          k = 0.2500 0.4330 0.0000 (  5491 PWs)   bands (ev):

    -4.8633  -4.4583  -4.1532  -3.6438  -2.9798  -2.1989  -1.2652  -0.2382
     0.2970   0.9297   1.2837   1.2923   1.4362   1.6016   1.9339   2.2979
     2.6011   2.7174

          k = 0.2500 0.5052 0.0000 (  5430 PWs)   bands (ev):

    -4.0846  -3.2695  -2.9752  -2.4789  -1.8317  -1.0823  -0.4198  -0.1816
    -0.1222   0.1548   0.3914   0.7464   1.0041   1.2074   1.2882   1.6123
     1.9136   2.2034

          k = 0.2500 0.5774 0.0000 (  5430 PWs)   bands (ev):

    -3.7197  -1.9167  -1.9076  -1.6561  -1.6193  -1.2406  -1.1008  -0.6249
    -0.5114  -0.0932   0.1537   0.5865   0.9101   1.1438   1.1960   1.5369
     1.5692   1.8697

          k = 0.3125 0.5413 0.0000 (  5411 PWs)   bands (ev):

    -3.5970  -1.9998  -1.7198  -1.2508  -0.6840  -0.5748  -0.5531  -0.3370
    -0.2550   0.0167   0.1170   0.1997   0.5153   0.6562   0.7882   1.0906
     1.2252   1.6129

     the Fermi energy is     2.1679 ev

!    total energy              =    -113.25887596 Ry
     Harris-Foulkes estimate   =    -113.25887602 Ry
     estimated scf accuracy    <       0.00000007 Ry

     The total energy is the sum of the following terms:

     one-electron contribution =   -1162.90744358 Ry
     hartree contribution      =     589.37113331 Ry
     xc contribution           =     -90.80133401 Ry
     ewald contribution        =     551.07857784 Ry
     smearing contrib. (-TS)   =       0.00019048 Ry

     convergence has been achieved in   7 iterations

     Forces acting on atoms (Ry/au):


     negative rho (up, down):  1.767E-05 0.000E+00
     atom    1 type  1   force =     0.00000000    0.00000000    0.00058951
     atom    2 type  1   force =     0.00000000    0.00000000   -0.00083986
     atom    3 type  1   force =     0.00000000    0.00000000    0.00014806
     atom    4 type  1   force =     0.00000000    0.00000000    0.00029011
     atom    5 type  1   force =     0.00000000   -0.00000000    0.00109312
     atom    6 type  1   force =    -0.00000000   -0.00000000   -0.00065208
     atom    7 type  1   force =     0.00000000   -0.00000000    0.00051646
     atom    8 type  1   force =     0.00000000    0.00000000   -0.00047159
     atom    9 type  1   force =     0.00000000    0.00000000   -0.00060649
     atom   10 type  2   force =     0.00000000    0.00000000   -0.00006722

     Total force =     0.001908     Total SCF correction =     0.000427
     SCF correction compared to forces is large: reduce conv_thr to get better values


     entering subroutine stress ...


     negative rho (up, down):  1.767E-05 0.000E+00
          total   stress  (Ry/bohr**3)                   (kbar)     P=   -9.10
  -0.00008192  -0.00000000   0.00000000        -12.05     -0.00      0.00
  -0.00000000  -0.00008192   0.00000000         -0.00    -12.05      0.00
   0.00000000   0.00000000  -0.00002180          0.00      0.00     -3.21


     number of scf cycles    =  35
     number of bfgs steps    =  34

     energy   old            =    -113.2588559555 Ry
     energy   new            =    -113.2588759599 Ry

     CASE: energy  _new < energy  _old

     new trust radius        =       0.0141077378 bohr
     new conv_thr            =       0.0000000900 Ry


ATOMIC_POSITIONS (crystal)
Al       0.333333300   0.666666600   0.106862719
Al       0.666666600   0.333333300   0.051577268
Al       0.000000000   0.000000000  -0.004619983
Al       0.333333300   0.666666600   0.274248095
Al       0.666666600   0.333333300   0.218692480
Al      -0.000000000   0.000000000   0.162961824
Al       0.333333300   0.666666600   0.460285997
Al       0.666666600   0.333333300   0.386322368
Al      -0.000000000  -0.000000000   0.329640570
H        0.666666600   0.333333300   0.430695261



     Writing output data file Al_111_3_3.save
     NEW-OLD atomic charge density approx. for the potential

     negative rho (up, down):  1.737E-05 0.000E+00

     total cpu time spent up to now is     4214.4 secs

     per-process dynamical memory:    97.9 Mb

     Self-consistent Calculation

     iteration #  1     ecut=    30.00 Ry     beta=0.30
     Davidson diagonalization with overlap
     ethr =  1.00E-06,  avg # of iterations =  3.1

     negative rho (up, down):  1.832E-05 0.000E+00

     total cpu time spent up to now is     4228.6 secs

     total energy              =    -113.25888973 Ry
     Harris-Foulkes estimate   =    -113.25889327 Ry
     estimated scf accuracy    <       0.00014757 Ry

     iteration #  2     ecut=    30.00 Ry     beta=0.30
     Davidson diagonalization with overlap
     ethr =  5.27E-07,  avg # of iterations =  1.1

     negative rho (up, down):  2.622E-05 0.000E+00

     total cpu time spent up to now is     4238.2 secs

     total energy              =    -113.25887730 Ry
     Harris-Foulkes estimate   =    -113.25889138 Ry
     estimated scf accuracy    <       0.00010301 Ry

     iteration #  3     ecut=    30.00 Ry     beta=0.30
     Davidson diagonalization with overlap
     ethr =  3.68E-07,  avg # of iterations =  1.8

     negative rho (up, down):  2.301E-05 0.000E+00

     total cpu time spent up to now is     4247.2 secs

     total energy              =    -113.25888481 Ry
     Harris-Foulkes estimate   =    -113.25888936 Ry
     estimated scf accuracy    <       0.00004549 Ry

     iteration #  4     ecut=    30.00 Ry     beta=0.30
     Davidson diagonalization with overlap
     ethr =  1.62E-07,  avg # of iterations =  1.3

     negative rho (up, down):  2.341E-05 0.000E+00

     total cpu time spent up to now is     4256.2 secs

     total energy              =    -113.25888718 Ry
     Harris-Foulkes estimate   =    -113.25888720 Ry
     estimated scf accuracy    <       0.00000043 Ry

     iteration #  5     ecut=    30.00 Ry     beta=0.30
     Davidson diagonalization with overlap
     ethr =  1.55E-09,  avg # of iterations =  4.0

     negative rho (up, down):  2.539E-05 0.000E+00

     total cpu time spent up to now is     4270.1 secs

     total energy              =    -113.25888740 Ry
     Harris-Foulkes estimate   =    -113.25888760 Ry
     estimated scf accuracy    <       0.00000280 Ry

     iteration #  6     ecut=    30.00 Ry     beta=0.30
     Davidson diagonalization with overlap
     ethr =  1.55E-09,  avg # of iterations =  2.5

     negative rho (up, down):  2.530E-05 0.000E+00

     total cpu time spent up to now is     4282.9 secs

     total energy              =    -113.25888748 Ry
     Harris-Foulkes estimate   =    -113.25888749 Ry
     estimated scf accuracy    <       0.00000010 Ry

     iteration #  7     ecut=    30.00 Ry     beta=0.30
     Davidson diagonalization with overlap
     ethr =  3.60E-10,  avg # of iterations =  1.1

     negative rho (up, down):  1.762E-05 0.000E+00

     total cpu time spent up to now is     4292.0 secs

     End of self-consistent calculation

          k = 0.0000 0.0000 0.0000 (  5537 PWs)   bands (ev):

    -9.0196  -8.8479  -8.5755  -8.0728  -7.4015  -6.6046  -5.6480  -4.5509
    -3.4141  -2.3730  -1.1354   0.3065   1.8943   3.4231   4.6525   5.5651
     5.9755   6.4652

          k = 0.0000 0.0722 0.0000 (  5524 PWs)   bands (ev):

    -8.9250  -8.7548  -8.4819  -7.9786  -7.3073  -6.5106  -5.5543  -4.4578
    -3.3226  -2.2843  -1.0478   0.3939   1.9809   3.5085   4.7336   5.6513
     6.0703   6.5561

          k = 0.0000 0.1443 0.0000 (  5500 PWs)   bands (ev):

    -8.6419  -8.4762  -8.2013  -7.6963  -7.0250  -6.2290  -5.2737  -4.1789
    -3.0491  -2.0198  -0.7873   0.6540   2.2394   3.7617   4.9658   5.8983
     6.3526   6.8184

          k = 0.0000 0.2165 0.0000 (  5496 PWs)   bands (ev):

    -8.1728  -8.0143  -7.7352  -7.2274  -6.5562  -5.7613  -4.8075  -3.7159
    -2.5967  -1.5833  -0.3601   1.0799   2.6579   4.1562   5.2454   6.1037
     6.6457   6.7095

          k = 0.0000 0.2887 0.0000 (  5490 PWs)   bands (ev):

    -7.5234  -7.3722  -7.0854  -6.5741  -5.9031  -5.1098  -4.1585  -3.0719
    -1.9727  -0.9860   0.2140   1.6398   3.1352   4.1133   4.5250   4.7493
     5.0313   5.2116

          k = 0.0000 0.3608 0.0000 (  5482 PWs)   bands (ev):

    -6.7094  -6.5527  -6.2546  -5.7399  -5.0693  -4.2783  -3.3304  -2.2532
    -1.1982  -0.2737   0.8335   1.8792   2.2478   2.7383   3.0883   3.3912
     3.7554   4.2155

          k = 0.0000 0.4330 0.0000 (  5488 PWs)   bands (ev):

    -5.7765  -5.5515  -5.2461  -4.7300  -4.0614  -3.2748  -2.3339  -1.2797
    -0.4187   0.1193   0.2439   0.5517   1.1038   1.5806   1.9295   2.5230
     2.6502   3.4961

          k = 0.0000 0.5052 0.0000 (  5504 PWs)   bands (ev):

    -4.8536  -4.3632  -4.0634  -3.5546  -2.8960  -2.1312  -1.4840  -1.2223
    -1.1771  -0.8605  -0.5815  -0.2319   0.3248   0.9975   1.3002   1.8331
     2.1688   2.8804

          k = 0.0000-0.5774 0.0000 (  5484 PWs)   bands (ev):

    -4.3718  -3.0025  -2.9924  -2.7348  -2.7002  -2.3082  -2.1748  -1.6907
    -1.5639  -1.1491  -0.8853  -0.4377   0.1886   0.5489   1.3232   1.4290
     2.1958   2.7066

          k = 0.0625 0.1083 0.0000 (  5511 PWs)   bands (ev):

    -8.7361  -8.5690  -8.2948  -7.7904  -7.1190  -6.3228  -5.3671  -4.2718
    -3.1400  -2.1077  -0.8738   0.5677   2.1539   3.6783   4.8912   5.8190
     6.2590   6.7348

          k = 0.0625 0.1804 0.0000 (  5519 PWs)   bands (ev):

    -8.3600  -8.1987  -7.9215  -7.4147  -6.7435  -5.9482  -4.9938  -3.9008
    -2.7769  -1.7570  -0.5295   0.9112   2.4936   4.0068   5.1705   6.1087
     6.6285   7.0190

          k = 0.0625 0.2526 0.0000 (  5496 PWs)   bands (ev):

    -7.8004  -7.6467  -7.3635  -6.8536  -6.1825  -5.3885  -4.4360  -3.3471
    -2.2383  -1.2389  -0.0263   1.4101   2.9718   4.3994   5.1477   5.6250
     5.7198   6.1805

          k = 0.0625 0.3248 0.0000 (  5488 PWs)   bands (ev):

    -7.0672  -6.9163  -6.6231  -6.1097  -5.4389  -4.6468  -3.6973  -2.6153
    -1.5359  -0.5746   0.5950   1.9709   3.0145   3.4980   3.9315   4.0469
     4.2705   4.7942

          k = 0.0625 0.3969 0.0000 (  5490 PWs)   bands (ev):

    -6.1880  -6.0068  -5.7034  -5.1874  -4.5176  -3.7285  -2.7836  -1.7152
    -0.7172   0.1071   0.9879   1.2371   1.6282   2.1805   2.6304   2.8442
     3.3961   3.5712

          k = 0.0625 0.4691 0.0000 (  5501 PWs)   bands (ev):

    -5.2393  -4.9114  -4.6075  -4.0936  -3.4280  -2.6467  -1.7171  -0.7390
    -0.5280  -0.4135  -0.2474   0.1161   0.7587   1.3079   1.7280   1.9024
     2.7000   2.9232

          k = 0.0625 0.5413 0.0000 (  5499 PWs)   bands (ev):

    -4.4566  -3.6322  -3.3409  -2.8454  -2.2358  -2.1701  -1.9030  -1.5128
    -1.4073  -1.0093  -0.7231  -0.3266   0.2463   0.8353   1.1698   1.7937
     2.2018   2.7332

          k = 0.1250 0.2165 0.0000 (  5513 PWs)   bands (ev):

    -7.8932  -7.7384  -7.4563  -6.9469  -6.2758  -5.4816  -4.5288  -3.4391
    -2.3274  -1.3241  -0.1079   1.3307   2.9025   4.3822   5.3598   6.1521
     6.7617   6.8617

          k = 0.1250 0.2887 0.0000 (  5487 PWs)   bands (ev):

    -7.2484  -7.0982  -6.8077  -6.2952  -5.6243  -4.8316  -3.8812  -2.7972
    -1.7081  -0.7333   0.4562   1.8781   3.3613   4.3509   4.7091   4.9276
     5.1547   5.3802

          k = 0.1250 0.3608 0.0000 (  5494 PWs)   bands (ev):

    -6.4442  -6.2791  -5.9782  -5.4628  -4.7926  -4.0025  -3.0559  -1.9816
    -0.9423  -0.0356   1.0612   2.1244   2.4954   2.9723   3.3357   3.6143
     3.9778   4.3747

          k = 0.1250 0.4330 0.0000 (  5496 PWs)   bands (ev):

    -5.5294  -5.2762  -4.9709  -4.4553  -3.7873  -3.0019  -2.0630  -1.0131
    -0.1885   0.3576   0.5103   0.8104   1.3534   1.8381   2.1767   2.7516
     2.8892   3.7147

          k = 0.1250 0.5052 0.0000 (  5491 PWs)   bands (ev):

    -4.6340  -4.0873  -3.7891  -3.2822  -2.6259  -1.8642  -1.2153  -0.9545
    -0.9095  -0.5961  -0.3244   0.0262   0.5811   1.2540   1.5499   2.0849
     2.3902   3.1069

          k = 0.1250 0.5774 0.0000 (  5460 PWs)   bands (ev):

    -4.1753  -2.7284  -2.7184  -2.4627  -2.4275  -2.0384  -1.9019  -1.4197
    -1.2957  -0.8809  -0.6195  -0.1710   0.4492   0.8134   1.5707   1.6806
     2.3924   2.9152

          k = 0.1875 0.3248 0.0000 (  5509 PWs)   bands (ev):

    -6.5309  -6.3697  -6.0700  -5.5549  -4.8846  -4.0941  -3.1468  -2.0709
    -1.0213  -0.0964   1.0371   2.3692   3.3544   3.6903   3.9700   4.1760
     4.2292   4.4318

          k = 0.1875 0.3969 0.0000 (  5493 PWs)   bands (ev):

    -5.6827  -5.4581  -5.1527  -4.6367  -3.9681  -3.1813  -2.2399  -1.1796
    -0.2407   0.5289   1.4461   1.7438   2.1089   2.6342   2.9196   3.1559
     3.2941   3.5079

          k = 0.1875 0.4691 0.0000 (  5470 PWs)   bands (ev):

    -4.7843  -4.3604  -4.0589  -3.5476  -2.8853  -2.1084  -1.1844  -0.2145
    -0.0213   0.0759   0.2503   0.6280   1.2394   1.7662   2.2152   2.3432
     2.7535   2.9224

          k = 0.1875 0.5413 0.0000 (  5454 PWs)   bands (ev):

    -4.0697  -3.0829  -2.7948  -2.3045  -1.7022  -1.6266  -1.3600  -0.9774
    -0.8732  -0.4754  -0.1990   0.1947   0.7548   1.3322   1.6545   2.1777
     2.4888   2.6731

          k = 0.2500 0.4330 0.0000 (  5491 PWs)   bands (ev):

    -4.8409  -4.4514  -4.1491  -3.6368  -2.9730  -2.1936  -1.2629  -0.2365
     0.3001   0.9347   1.2880   1.2989   1.4413   1.6073   1.9409   2.3055
     2.6062   2.7243

          k = 0.2500 0.5052 0.0000 (  5430 PWs)   bands (ev):

    -4.0591  -3.2634  -2.9711  -2.4719  -1.8248  -1.0767  -0.4142  -0.1750
    -0.1193   0.1618   0.3970   0.7500   1.0095   1.2126   1.2935   1.6204
     1.9190   2.2090

          k = 0.2500 0.5774 0.0000 (  5430 PWs)   bands (ev):

    -3.6924  -1.9113  -1.9017  -1.6515  -1.6148  -1.2333  -1.0933  -0.6170
    -0.5053  -0.0867   0.1597   0.5918   0.9155   1.1482   1.2000   1.5436
     1.5722   1.8771

          k = 0.3125 0.5413 0.0000 (  5411 PWs)   bands (ev):

    -3.5696  -1.9941  -1.7154  -1.2437  -0.6773  -0.5693  -0.5474  -0.3311
    -0.2500   0.0230   0.1243   0.2067   0.5217   0.6622   0.7960   1.0952
     1.2318   1.6172

     the Fermi energy is     2.1710 ev

!    total energy              =    -113.25888746 Ry
     Harris-Foulkes estimate   =    -113.25888748 Ry
     estimated scf accuracy    <       0.00000004 Ry

     The total energy is the sum of the following terms:

     one-electron contribution =   -1161.68605633 Ry
     hartree contribution      =     588.75695654 Ry
     xc contribution           =     -90.79860820 Ry
     ewald contribution        =     550.46862791 Ry
     smearing contrib. (-TS)   =       0.00019262 Ry

     convergence has been achieved in   7 iterations

     Forces acting on atoms (Ry/au):


     negative rho (up, down):  1.762E-05 0.000E+00
     atom    1 type  1   force =     0.00000000    0.00000000    0.00078365
     atom    2 type  1   force =     0.00000000    0.00000000   -0.00077218
     atom    3 type  1   force =     0.00000000    0.00000000    0.00021470
     atom    4 type  1   force =     0.00000000    0.00000000    0.00015624
     atom    5 type  1   force =     0.00000000   -0.00000000    0.00060994
     atom    6 type  1   force =    -0.00000000    0.00000000   -0.00075332
     atom    7 type  1   force =     0.00000000    0.00000000    0.00021081
     atom    8 type  1   force =     0.00000000    0.00000000   -0.00058196
     atom    9 type  1   force =     0.00000000   -0.00000000    0.00001587
     atom   10 type  2   force =     0.00000000    0.00000000    0.00011625

     Total force =     0.001618     Total SCF correction =     0.000300
     SCF correction compared to forces is large: reduce conv_thr to get better values


     entering subroutine stress ...


     negative rho (up, down):  1.762E-05 0.000E+00
          total   stress  (Ry/bohr**3)                   (kbar)     P=   -9.29
  -0.00008294   0.00000000  -0.00000000        -12.20      0.00     -0.00
   0.00000000  -0.00008294  -0.00000000          0.00    -12.20     -0.00
   0.00000000   0.00000000  -0.00002367          0.00      0.00     -3.48


     bfgs converged in  36 scf cycles and  35 bfgs steps
     (criteria: energy <  1.0E-04, force <  1.0E-03)

     End of BFGS Geometry Optimization

     Final energy   =    -113.2588874621 Ry
Begin final coordinates

ATOMIC_POSITIONS (crystal)
Al       0.333333300   0.666666600   0.106862719
Al       0.666666600   0.333333300   0.051577268
Al       0.000000000   0.000000000  -0.004619983
Al       0.333333300   0.666666600   0.274248095
Al       0.666666600   0.333333300   0.218692480
Al      -0.000000000   0.000000000   0.162961824
Al       0.333333300   0.666666600   0.460285997
Al       0.666666600   0.333333300   0.386322368
Al      -0.000000000  -0.000000000   0.329640570
H        0.666666600   0.333333300   0.430695261
End final coordinates



     Writing output data file Al_111_3_3.save

     init_run     :      7.52s CPU      9.33s WALL (       1 calls)
     electrons    :   2431.63s CPU   4016.78s WALL (      36 calls)
     update_pot   :     20.48s CPU     21.51s WALL (      35 calls)
     forces       :     78.88s CPU     81.68s WALL (      36 calls)
     stress       :    155.26s CPU    161.00s WALL (      36 calls)

     Called by init_run:
     wfcinit      :      6.52s CPU      8.29s WALL (       1 calls)
     potinit      :      0.27s CPU      0.29s WALL (       1 calls)

     Called by electrons:
     c_bands      :   1806.13s CPU   2929.47s WALL (     374 calls)
     sum_band     :    216.88s CPU    452.63s WALL (     374 calls)
     v_of_rho     :     63.14s CPU     70.07s WALL (     410 calls)
     newd         :     42.94s CPU     44.28s WALL (     410 calls)
     mix_rho      :    307.00s CPU    523.86s WALL (     374 calls)

     Called by c_bands:
     init_us_2    :     45.37s CPU     61.55s WALL (   24630 calls)
     cegterg      :   1759.44s CPU   2866.65s WALL (   11220 calls)

     Called by *egterg:
     h_psi        :    721.18s CPU   1721.75s WALL (   35562 calls)
     s_psi        :    233.03s CPU    257.48s WALL (   35562 calls)
     g_psi        :      7.51s CPU     10.83s WALL (   24312 calls)
     cdiaghg      :     28.82s CPU     39.77s WALL (   34482 calls)

     Called by h_psi:
     add_vuspsi   :    237.42s CPU    257.82s WALL (   35562 calls)

     General routines
     calbec       :    355.68s CPU    419.42s WALL (   48942 calls)
     fft          :     32.10s CPU     43.14s WALL (    7351 calls)
     ffts         :    127.64s CPU    258.04s WALL (  137944 calls)
     fftw         :    235.80s CPU   1161.63s WALL ( 1156466 calls)
     interpolate  :      4.33s CPU      6.87s WALL (     784 calls)
     davcio       :      0.00s CPU      0.03s WALL (      30 calls)

     Parallel routines
     fft_scatter  :     57.76s CPU    213.84s WALL ( 1301761 calls)

     PWSCF        :     0h45m CPU        1h11m WALL


   This run was terminated on:  20:54:42   4Jun2020            

=------------------------------------------------------------------------------=
   JOB DONE.
=------------------------------------------------------------------------------=
