
     Program PWSCF v.6.4.1 starts on 28May2020 at  1:24: 3 

     This program is part of the open-source Quantum ESPRESSO suite
     for quantum simulation of materials; please cite
         "P. Giannozzi et al., J. Phys.:Condens. Matter 21 395502 (2009);
         "P. Giannozzi et al., J. Phys.:Condens. Matter 29 465901 (2017);
          URL http://www.quantum-espresso.org", 
     in publications or presentations arising from this work. More details at
     http://www.quantum-espresso.org/quote

     Parallel version (MPI & OpenMP), running on       1 processor cores
     Number of MPI processes:                 1
     Threads/MPI process:                     1

     MPI processes distributed on     1 nodes
     Reading input from Al_111_bulk_90_7.58.pw.in
Warning: card  &IONS ignored
Warning: card   ION_DYNAMICS = 'BFGS', ignored
Warning: card  / ignored
Warning: card  &CELL ignored
Warning: card  / ignored

     Current dimensions of program PWSCF are:
     Max number of different atomic species (ntypx) = 10
     Max number of k-points (npk) =  40000
     Max angular momentum in pseudopotentials (lmaxx) =  3

     Subspace diagonalization in iterative solution of the eigenvalue problem:
     a serial algorithm will be used

     Found symmetry operation: I + (  0.3333 -0.3333  0.3333)
     This is a supercell, fractional translations are disabled
 
     G-vector sticks info
     --------------------
     sticks:   dense  smooth     PW     G-vecs:    dense   smooth      PW
     Sum         595     595    421                28711    28711   16981
 


     bravais-lattice index     =            4
     lattice parameter (alat)  =       7.5800  a.u.
     unit-cell volume          =     923.8764 (a.u.)^3
     number of atoms/cell      =            3
     number of atomic types    =            1
     number of electrons       =         9.00
     number of Kohn-Sham states=            9
     kinetic-energy cutoff     =      90.0000  Ry
     charge density cutoff     =     150.0000  Ry
     convergence threshold     =      1.0E-08
     mixing beta               =       0.3000
     number of iterations used =            8  local-TF  mixing
     Exchange-correlation      =  SLA  PW   PBE  PBE ( 1  4  3  4 0 0)

     celldm(1)=   7.580000  celldm(2)=   0.000000  celldm(3)=   2.449490
     celldm(4)=   0.000000  celldm(5)=   0.000000  celldm(6)=   0.000000

     crystal axes: (cart. coord. in units of alat)
               a(1) = (   1.000000   0.000000   0.000000 )  
               a(2) = (  -0.500000   0.866025   0.000000 )  
               a(3) = (   0.000000   0.000000   2.449490 )  

     reciprocal axes: (cart. coord. in units 2 pi/alat)
               b(1) = (  1.000000  0.577350  0.000000 )  
               b(2) = (  0.000000  1.154701  0.000000 )  
               b(3) = (  0.000000  0.000000  0.408248 )  


     PseudoPot. # 1 for Al read from file:
     ./Al.pbe-n-van.UPF
     MD5 check sum: b11ded24487aef5bc42d5c7a2e22a7b6
     Pseudo is Ultrasoft + core correction, Zval =  3.0
     Generated by new atomic code, or converted to UPF format
     Using radial grid of  893 points,  2 beta functions with: 
                l(1) =   0
                l(2) =   1
     Q(r) pseudized with  8 coefficients,  rinner =    0.900   0.900   0.900


     atomic species   valence    mass     pseudopotential
        Al             3.00    26.98000     Al( 1.00)

     12 Sym. Ops., with inversion, found



   Cartesian axes

     site n.     atom                  positions (alat units)
         1           Al  tau(   1) = (   0.0000000   0.0000000   0.0000000  )
         2           Al  tau(   2) = (  -0.0000000   0.5773503   0.8164966  )
         3           Al  tau(   3) = (   0.5000000   0.2886751   1.6329932  )

     number of k points=   480  Marzari-Vanderbilt smearing, width (Ry)=  0.0250

     Number of k-points >= 100: set verbosity='high' to print them.

     Dense  grid:    28711 G-vectors     FFT dimensions: (  30,  30,  75)

     Estimated max dynamical RAM per process >     921.05 MB

     Initial potential from superposition of free atoms

     starting charge    8.99260, renormalised to    9.00000
     Starting wfcs are   12 randomized atomic wfcs

     total cpu time spent up to now is       17.6 secs

     Self-consistent Calculation

     iteration #  1     ecut=    90.00 Ry     beta= 0.30
     Davidson diagonalization with overlap
     ethr =  1.00E-02,  avg # of iterations =  2.6

     Threshold (ethr) on eigenvalues was too large:
     Diagonalizing with lowered threshold

     Davidson diagonalization with overlap
     ethr =  1.13E-04,  avg # of iterations =  2.8

     total cpu time spent up to now is       87.0 secs

     total energy              =     -37.02919893 Ry
     Harris-Foulkes estimate   =     -37.02980216 Ry
     estimated scf accuracy    <       0.01031475 Ry

     iteration #  2     ecut=    90.00 Ry     beta= 0.30
     Davidson diagonalization with overlap
     ethr =  1.15E-04,  avg # of iterations =  1.0

     total cpu time spent up to now is      113.4 secs

     total energy              =     -37.02740846 Ry
     Harris-Foulkes estimate   =     -37.02925651 Ry
     estimated scf accuracy    <       0.00692964 Ry

     iteration #  3     ecut=    90.00 Ry     beta= 0.30
     Davidson diagonalization with overlap
     ethr =  7.70E-05,  avg # of iterations =  1.0

     total cpu time spent up to now is      139.7 secs

     total energy              =     -37.02787580 Ry
     Harris-Foulkes estimate   =     -37.02786629 Ry
     estimated scf accuracy    <       0.00001528 Ry

     iteration #  4     ecut=    90.00 Ry     beta= 0.30
     Davidson diagonalization with overlap
     ethr =  1.70E-07,  avg # of iterations =  4.2

     total cpu time spent up to now is      186.6 secs

     total energy              =     -37.02792005 Ry
     Harris-Foulkes estimate   =     -37.02791876 Ry
     estimated scf accuracy    <       0.00000464 Ry

     iteration #  5     ecut=    90.00 Ry     beta= 0.30
     Davidson diagonalization with overlap
     ethr =  5.16E-08,  avg # of iterations =  1.0

     total cpu time spent up to now is      213.0 secs

     total energy              =     -37.02792046 Ry
     Harris-Foulkes estimate   =     -37.02792031 Ry
     estimated scf accuracy    <       0.00000083 Ry

     iteration #  6     ecut=    90.00 Ry     beta= 0.30
     Davidson diagonalization with overlap
     ethr =  9.18E-09,  avg # of iterations =  2.0

     total cpu time spent up to now is      246.2 secs

     total energy              =     -37.02792044 Ry
     Harris-Foulkes estimate   =     -37.02792079 Ry
     estimated scf accuracy    <       0.00000100 Ry

     iteration #  7     ecut=    90.00 Ry     beta= 0.30
     Davidson diagonalization with overlap
     ethr =  9.18E-09,  avg # of iterations =  2.0

     total cpu time spent up to now is      279.3 secs

     total energy              =     -37.02792058 Ry
     Harris-Foulkes estimate   =     -37.02792066 Ry
     estimated scf accuracy    <       0.00000034 Ry

     iteration #  8     ecut=    90.00 Ry     beta= 0.30
     Davidson diagonalization with overlap
     ethr =  3.77E-09,  avg # of iterations =  1.0

     total cpu time spent up to now is      305.7 secs

     total energy              =     -37.02792059 Ry
     Harris-Foulkes estimate   =     -37.02792060 Ry
     estimated scf accuracy    <       0.00000004 Ry

     iteration #  9     ecut=    90.00 Ry     beta= 0.30
     Davidson diagonalization with overlap
     ethr =  3.95E-10,  avg # of iterations =  1.0

     total cpu time spent up to now is      332.0 secs

     End of self-consistent calculation

     Number of k-points >= 100: set verbosity='high' to print the bands.

     the Fermi energy is     0.7515 ev

!    total energy              =     -37.02792059 Ry
     Harris-Foulkes estimate   =     -37.02792059 Ry
     estimated scf accuracy    <          3.1E-09 Ry

     The total energy is the sum of the following terms:

     one-electron contribution =       3.22719097 Ry
     hartree contribution      =       0.35952708 Ry
     xc contribution           =     -29.06614432 Ry
     ewald contribution        =     -11.54797504 Ry
     smearing contrib. (-TS)   =      -0.00051928 Ry

     convergence has been achieved in   9 iterations

     Forces acting on atoms (cartesian axes, Ry/au):

     atom    1 type  1   force =    -0.00000000   -0.00000000    0.00000000
     atom    2 type  1   force =     0.00000000    0.00000000   -0.00000000
     atom    3 type  1   force =     0.00000000    0.00000000    0.00000000

     Total force =     0.000000     Total SCF correction =     0.000000
     SCF correction compared to forces is large: reduce conv_thr to get better values


     Computing stress (Cartesian axis) and pressure

          total   stress  (Ry/bohr**3)                   (kbar)     P=  -65.92
  -0.00044784   0.00000000   0.00000000        -65.88      0.00      0.00
   0.00000000  -0.00044784   0.00000000          0.00    -65.88      0.00
   0.00000000   0.00000000  -0.00044860          0.00      0.00    -65.99


     Writing output data file Al_111_bulk.save/
 
     init_run     :     17.13s CPU     17.56s WALL (       1 calls)
     electrons    :    312.61s CPU    314.43s WALL (       1 calls)
     forces       :      4.09s CPU      4.14s WALL (       1 calls)
     stress       :     23.54s CPU     23.60s WALL (       1 calls)

     Called by init_run:
     wfcinit      :     16.28s CPU     16.67s WALL (       1 calls)
     potinit      :      0.04s CPU      0.05s WALL (       1 calls)
     hinit0       :      0.77s CPU      0.80s WALL (       1 calls)

     Called by electrons:
     c_bands      :    261.20s CPU    262.53s WALL (      10 calls)
     sum_band     :     50.80s CPU     51.20s WALL (      10 calls)
     v_of_rho     :      0.37s CPU      0.37s WALL (      10 calls)
     newd         :      0.08s CPU      0.11s WALL (      10 calls)
     mix_rho      :      0.20s CPU      0.22s WALL (      10 calls)

     Called by c_bands:
     init_us_2    :     25.90s CPU     26.10s WALL (   11040 calls)
     cegterg      :    236.13s CPU    237.01s WALL (    4800 calls)

     Called by sum_band:
     sum_band:bec :      0.03s CPU      0.03s WALL (    4800 calls)
     addusdens    :      0.09s CPU      0.11s WALL (      10 calls)

     Called by *egterg:
     h_psi        :    186.35s CPU    186.88s WALL (   14224 calls)
     s_psi        :      6.95s CPU      6.99s WALL (   14224 calls)
     g_psi        :      7.40s CPU      7.42s WALL (    8944 calls)
     cdiaghg      :      2.33s CPU      2.40s WALL (   13264 calls)

     Called by h_psi:
     h_psi:pot    :    183.78s CPU    184.29s WALL (   14224 calls)
     h_psi:calbec :      7.51s CPU      7.53s WALL (   14224 calls)
     vloc_psi     :    169.22s CPU    169.69s WALL (   14224 calls)
     add_vuspsi   :      6.97s CPU      7.00s WALL (   14224 calls)

     General routines
     calbec       :     11.70s CPU     11.75s WALL (   21424 calls)
     fft          :      0.09s CPU      0.10s WALL (     136 calls)
     ffts         :      0.08s CPU      0.08s WALL (     126 calls)
     fftw         :    172.90s CPU    173.36s WALL (  262670 calls)
 
     Parallel routines
 
     PWSCF        :   5m57.88s CPU   6m10.36s WALL

 
   This run was terminated on:   1:30:13  28May2020            

=------------------------------------------------------------------------------=
   JOB DONE.
=------------------------------------------------------------------------------=
