
     Program PWSCF v.6.4.1 starts on  1Jun2020 at 22:16:42 

     This program is part of the open-source Quantum ESPRESSO suite
     for quantum simulation of materials; please cite
         "P. Giannozzi et al., J. Phys.:Condens. Matter 21 395502 (2009);
         "P. Giannozzi et al., J. Phys.:Condens. Matter 29 465901 (2017);
          URL http://www.quantum-espresso.org", 
     in publications or presentations arising from this work. More details at
     http://www.quantum-espresso.org/quote

     Parallel version (MPI), running on     1 processors

     MPI processes distributed on     1 nodes
     Reading input from H2_18_26.455_50.pw.in

     Current dimensions of program PWSCF are:
     Max number of different atomic species (ntypx) = 10
     Max number of k-points (npk) =  40000
     Max angular momentum in pseudopotentials (lmaxx) =  3
               file H.pbe-rrkjus.UPF: wavefunction(s)  1S renormalized

     Subspace diagonalization in iterative solution of the eigenvalue problem:
     a serial algorithm will be used


     G-vector sticks info
     --------------------
     sticks:   dense  smooth     PW     G-vecs:    dense   smooth      PW
     Sum       24121    9661   2539              3026889   766103  103855



     bravais-lattice index     =            4
     lattice parameter (alat)  =      26.4550  a.u.
     unit-cell volume          =   16034.4449 (a.u.)^3
     number of atoms/cell      =            2
     number of atomic types    =            1
     number of electrons       =         2.00
     number of Kohn-Sham states=            1
     kinetic-energy cutoff     =      50.0000  Ry
     charge density cutoff     =     500.0000  Ry
     convergence threshold     =      1.0E-06
     mixing beta               =       0.7000
     number of iterations used =            8  plain     mixing
     Exchange-correlation      =  SLA  PW   PBE  PBE ( 1  4  3  4 0 0)
     nstep                     =           50


     celldm(1)=  26.455000  celldm(2)=   0.000000  celldm(3)=   1.000000
     celldm(4)=   0.000000  celldm(5)=   0.000000  celldm(6)=   0.000000

     crystal axes: (cart. coord. in units of alat)
               a(1) = (   1.000000   0.000000   0.000000 )  
               a(2) = (  -0.500000   0.866025   0.000000 )  
               a(3) = (   0.000000   0.000000   1.000000 )  

     reciprocal axes: (cart. coord. in units 2 pi/alat)
               b(1) = (  1.000000  0.577350 -0.000000 )  
               b(2) = (  0.000000  1.154701  0.000000 )  
               b(3) = (  0.000000 -0.000000  1.000000 )  


     PseudoPot. # 1 for H  read from file:
     ./H.pbe-rrkjus.UPF
     MD5 check sum: 0433647300470310da31d564c103eed6
     Pseudo is Ultrasoft, Zval =  1.0
     Generated by new atomic code, or converted to UPF format
     Using radial grid of 1061 points,  2 beta functions with: 
                l(1) =   0
                l(2) =   0
     Q(r) pseudized with 0 coefficients 


     atomic species   valence    mass     pseudopotential
        H              1.00     1.00794     H ( 1.00)

      4 Sym. Ops. (no inversion) found



   Cartesian axes

     site n.     atom                  positions (alat units)
         1           H   tau(   1) = (   0.0000000   0.0000000   0.0000000  )
         2           H   tau(   2) = (   0.0742010   0.0000000   0.0000000  )

     number of k points=   910

     Number of k-points >= 100: set verbosity='high' to print them.

     Dense  grid:  3026889 G-vectors     FFT dimensions: ( 192, 192, 192)

     Smooth grid:   766103 G-vectors     FFT dimensions: ( 120, 120, 120)

     Estimated max dynamical RAM per process >       3.47 GB

     Initial potential from superposition of free atoms

     starting charge    1.80759, renormalised to    2.00000

     negative rho (up, down):  1.443E-03 0.000E+00
     Starting wfcs are    2 randomized atomic wfcs

     total cpu time spent up to now is      323.5 secs

     Self-consistent Calculation

     iteration #  1     ecut=    50.00 Ry     beta= 0.70
     Davidson diagonalization with overlap
     ethr =  1.00E-02,  avg # of iterations =  2.0

     negative rho (up, down):  4.173E-04 0.000E+00

     total cpu time spent up to now is      822.2 secs

     total energy              =      -2.24297640 Ry
     Harris-Foulkes estimate   =      -2.53219787 Ry
     estimated scf accuracy    <       0.45668067 Ry

     iteration #  2     ecut=    50.00 Ry     beta= 0.70
     Davidson diagonalization with overlap
     ethr =  1.00E-02,  avg # of iterations =  2.0

     negative rho (up, down):  1.268E-04 0.000E+00

     total cpu time spent up to now is     1319.3 secs

     total energy              =      -2.26818106 Ry
     Harris-Foulkes estimate   =      -2.27356835 Ry
     estimated scf accuracy    <       0.01252401 Ry

     iteration #  3     ecut=    50.00 Ry     beta= 0.70
     Davidson diagonalization with overlap
     ethr =  6.26E-04,  avg # of iterations =  2.0

     negative rho (up, down):  5.670E-05 0.000E+00

     total cpu time spent up to now is     1818.0 secs

     total energy              =      -2.26996341 Ry
     Harris-Foulkes estimate   =      -2.26970708 Ry
     estimated scf accuracy    <       0.00056049 Ry

     iteration #  4     ecut=    50.00 Ry     beta= 0.70
     Davidson diagonalization with overlap
     ethr =  2.80E-05,  avg # of iterations =  1.0

     negative rho (up, down):  7.498E-05 0.000E+00

     total cpu time spent up to now is     2185.9 secs

     total energy              =      -2.26997601 Ry
     Harris-Foulkes estimate   =      -2.26998686 Ry
     estimated scf accuracy    <       0.00002415 Ry

     iteration #  5     ecut=    50.00 Ry     beta= 0.70
     Davidson diagonalization with overlap
     ethr =  1.21E-06,  avg # of iterations =  2.0

     negative rho (up, down):  2.227E-05 0.000E+00

     total cpu time spent up to now is     2682.8 secs

     End of self-consistent calculation

     Number of k-points >= 100: set verbosity='high' to print the bands.

     highest occupied level (ev):    -9.1890

!    total energy              =      -2.26997900 Ry
     Harris-Foulkes estimate   =      -2.26997914 Ry
     estimated scf accuracy    <       0.00000014 Ry

     The total energy is the sum of the following terms:

     one-electron contribution =      -3.44613215 Ry
     hartree contribution      =       1.83292963 Ry
     xc contribution           =      -1.22378359 Ry
     ewald contribution        =       0.56700711 Ry

     convergence has been achieved in   5 iterations

     Forces acting on atoms (cartesian axes, Ry/au):

     atom    1 type  1   force =     0.17156488   -0.00000000    0.00000000
     atom    2 type  1   force =    -0.17156488    0.00000000    0.00000000

     Total force =     0.242629     Total SCF correction =     0.000107


     Computing stress (Cartesian axis) and pressure

          total   stress  (Ry/bohr**3)                   (kbar)     P=   -1.03
  -0.00002101   0.00000000   0.00000000         -3.09      0.00      0.00
   0.00000000  -0.00000001   0.00000000          0.00     -0.00      0.00
   0.00000000   0.00000000  -0.00000001          0.00      0.00     -0.00


     BFGS Geometry Optimization

     number of scf cycles    =   1
     number of bfgs steps    =   0

     energy   new            =      -2.2699789999 Ry

     new trust radius        =       0.1715648800 bohr
     new conv_thr            =       0.0000010000 Ry


ATOMIC_POSITIONS (crystal)
H        0.006485159  -0.000000000   0.000000000
H        0.067715867   0.000000000   0.000000000



     Writing output data file H2_gas.save/
     NEW-OLD atomic charge density approx. for the potential

     negative rho (up, down):  8.193E-03 0.000E+00

     total cpu time spent up to now is     2776.6 secs

     Self-consistent Calculation

     iteration #  1     ecut=    50.00 Ry     beta= 0.70
     Davidson diagonalization with overlap
     ethr =  1.00E-06,  avg # of iterations =  4.0

     negative rho (up, down):  2.415E-03 0.000E+00

     total cpu time spent up to now is     3534.8 secs

     total energy              =      -2.31894692 Ry
     Harris-Foulkes estimate   =      -2.32381324 Ry
     estimated scf accuracy    <       0.01099835 Ry

     iteration #  2     ecut=    50.00 Ry     beta= 0.70
     Davidson diagonalization with overlap
     ethr =  5.50E-04,  avg # of iterations =  1.0

     negative rho (up, down):  6.014E-04 0.000E+00

     total cpu time spent up to now is     3903.8 secs

     total energy              =      -2.31973415 Ry
     Harris-Foulkes estimate   =      -2.31976666 Ry
     estimated scf accuracy    <       0.00014805 Ry

     iteration #  3     ecut=    50.00 Ry     beta= 0.70
     Davidson diagonalization with overlap
     ethr =  7.40E-06,  avg # of iterations =  2.0

     negative rho (up, down):  1.353E-04 0.000E+00

     total cpu time spent up to now is     4397.9 secs

     total energy              =      -2.31975888 Ry
     Harris-Foulkes estimate   =      -2.31975917 Ry
     estimated scf accuracy    <       0.00000450 Ry

     iteration #  4     ecut=    50.00 Ry     beta= 0.70
     Davidson diagonalization with overlap
     ethr =  2.25E-07,  avg # of iterations =  1.0

     negative rho (up, down):  2.772E-05 0.000E+00

     total cpu time spent up to now is     4764.4 secs

     End of self-consistent calculation

     Number of k-points >= 100: set verbosity='high' to print the bands.

     highest occupied level (ev):    -9.8565

!    total energy              =      -2.31975899 Ry
     Harris-Foulkes estimate   =      -2.31975902 Ry
     estimated scf accuracy    <       0.00000008 Ry

     The total energy is the sum of the following terms:

     one-electron contribution =      -3.81824574 Ry
     hartree contribution      =       2.02607023 Ry
     xc contribution           =      -1.31005855 Ry
     ewald contribution        =       0.78247507 Ry

     convergence has been achieved in   4 iterations

     Forces acting on atoms (cartesian axes, Ry/au):

     atom    1 type  1   force =     0.10334356   -0.00000000    0.00000000
     atom    2 type  1   force =    -0.10334356    0.00000000    0.00000000

     Total force =     0.146150     Total SCF correction =     0.000027


     Computing stress (Cartesian axis) and pressure

          total   stress  (Ry/bohr**3)                   (kbar)     P=   -0.51
  -0.00001043   0.00000000   0.00000000         -1.53      0.00      0.00
   0.00000000   0.00000001   0.00000000          0.00      0.00      0.00
   0.00000000   0.00000000   0.00000001          0.00      0.00      0.00


     number of scf cycles    =   2
     number of bfgs steps    =   1

     energy   old            =      -2.2699789999 Ry
     energy   new            =      -2.3197589866 Ry

     CASE: energy  _new < energy  _old

     new trust radius        =       0.1887213681 bohr
     new conv_thr            =       0.0000010000 Ry


ATOMIC_POSITIONS (crystal)
H        0.013618834  -0.000000000   0.000000000
H        0.060582192   0.000000000   0.000000000



     Writing output data file H2_gas.save/
     NEW-OLD atomic charge density approx. for the potential

     negative rho (up, down):  8.281E-03 0.000E+00

     total cpu time spent up to now is     4857.2 secs

     Self-consistent Calculation

     iteration #  1     ecut=    50.00 Ry     beta= 0.70
     Davidson diagonalization with overlap
     ethr =  1.00E-06,  avg # of iterations =  4.0

     negative rho (up, down):  2.452E-03 0.000E+00

     total cpu time spent up to now is     5612.9 secs

     total energy              =      -2.31518957 Ry
     Harris-Foulkes estimate   =      -2.32471488 Ry
     estimated scf accuracy    <       0.02064218 Ry

     iteration #  2     ecut=    50.00 Ry     beta= 0.70
     Davidson diagonalization with overlap
     ethr =  1.03E-03,  avg # of iterations =  1.0

     negative rho (up, down):  6.284E-04 0.000E+00

     total cpu time spent up to now is     5981.1 secs

     total energy              =      -2.31684331 Ry
     Harris-Foulkes estimate   =      -2.31688254 Ry
     estimated scf accuracy    <       0.00022098 Ry

     iteration #  3     ecut=    50.00 Ry     beta= 0.70
     Davidson diagonalization with overlap
     ethr =  1.10E-05,  avg # of iterations =  2.0

     negative rho (up, down):  1.443E-04 0.000E+00

     total cpu time spent up to now is     6477.6 secs

     total energy              =      -2.31688369 Ry
     Harris-Foulkes estimate   =      -2.31688296 Ry
     estimated scf accuracy    <       0.00000663 Ry

     iteration #  4     ecut=    50.00 Ry     beta= 0.70
     Davidson diagonalization with overlap
     ethr =  3.31E-07,  avg # of iterations =  1.0

     negative rho (up, down):  3.749E-05 0.000E+00

     total cpu time spent up to now is     6844.1 secs

     End of self-consistent calculation

     Number of k-points >= 100: set verbosity='high' to print the bands.

     highest occupied level (ev):   -10.8170

!    total energy              =      -2.31688385 Ry
     Harris-Foulkes estimate   =      -2.31688389 Ry
     estimated scf accuracy    <       0.00000008 Ry

     The total energy is the sum of the following terms:

     one-electron contribution =      -4.33233794 Ry
     hartree contribution      =       2.29177402 Ry
     xc contribution           =      -1.43357670 Ry
     ewald contribution        =       1.15725678 Ry

     convergence has been achieved in   4 iterations

     Forces acting on atoms (cartesian axes, Ry/au):

     atom    1 type  1   force =    -0.17834711    0.00000000    0.00000000
     atom    2 type  1   force =     0.17834711    0.00000000    0.00000000

     Total force =     0.252221     Total SCF correction =     0.000013


     Computing stress (Cartesian axis) and pressure

          total   stress  (Ry/bohr**3)                   (kbar)     P=    0.68
   0.00001383   0.00000000   0.00000000          2.03      0.00      0.00
   0.00000000   0.00000001   0.00000000          0.00      0.00      0.00
   0.00000000   0.00000000   0.00000001          0.00      0.00      0.00


     number of scf cycles    =   3
     number of bfgs steps    =   2

     energy   old            =      -2.3197589866 Ry
     energy   new            =      -2.3168838452 Ry

     CASE: energy  _new > energy  _old

     new trust radius        =       0.0878828632 bohr
     new conv_thr            =       0.0000010000 Ry


ATOMIC_POSITIONS (crystal)
H        0.009807135  -0.000000000   0.000000000
H        0.064393892   0.000000000   0.000000000



     Writing output data file H2_gas.save/
     NEW-OLD atomic charge density approx. for the potential

     negative rho (up, down):  3.904E-03 0.000E+00

     total cpu time spent up to now is     6937.1 secs

     Self-consistent Calculation

     iteration #  1     ecut=    50.00 Ry     beta= 0.70
     Davidson diagonalization with overlap
     ethr =  1.00E-06,  avg # of iterations =  4.0

     negative rho (up, down):  1.106E-03 0.000E+00

     total cpu time spent up to now is     7697.2 secs

     total energy              =      -2.33034104 Ry
     Harris-Foulkes estimate   =      -2.33352467 Ry
     estimated scf accuracy    <       0.00666546 Ry

     iteration #  2     ecut=    50.00 Ry     beta= 0.70
     Davidson diagonalization with overlap
     ethr =  3.33E-04,  avg # of iterations =  1.0

     negative rho (up, down):  3.020E-04 0.000E+00

     total cpu time spent up to now is     8069.7 secs

     total energy              =      -2.33099522 Ry
     Harris-Foulkes estimate   =      -2.33098405 Ry
     estimated scf accuracy    <       0.00007028 Ry

     iteration #  3     ecut=    50.00 Ry     beta= 0.70
     Davidson diagonalization with overlap
     ethr =  3.51E-06,  avg # of iterations =  2.0

     negative rho (up, down):  1.004E-04 0.000E+00

     total cpu time spent up to now is     8565.9 secs

     total energy              =      -2.33100850 Ry
     Harris-Foulkes estimate   =      -2.33100715 Ry
     estimated scf accuracy    <       0.00000430 Ry

     iteration #  4     ecut=    50.00 Ry     beta= 0.70
     Davidson diagonalization with overlap
     ethr =  2.15E-07,  avg # of iterations =  1.0

     negative rho (up, down):  3.211E-05 0.000E+00

     total cpu time spent up to now is     8932.6 secs

     End of self-consistent calculation

     Number of k-points >= 100: set verbosity='high' to print the bands.

     highest occupied level (ev):   -10.2644

!    total energy              =      -2.33100850 Ry
     Harris-Foulkes estimate   =      -2.33100856 Ry
     estimated scf accuracy    <          9.6E-09 Ry

     The total energy is the sum of the following terms:

     one-electron contribution =      -4.04219594 Ry
     hartree contribution      =       2.14194448 Ry
     xc contribution           =      -1.36335452 Ry
     ewald contribution        =       0.93259748 Ry

     convergence has been achieved in   4 iterations

     Forces acting on atoms (cartesian axes, Ry/au):

     atom    1 type  1   force =     0.01589327    0.00000000    0.00000000
     atom    2 type  1   force =    -0.01589327    0.00000000    0.00000000

     Total force =     0.022476     Total SCF correction =     0.000069


     Computing stress (Cartesian axis) and pressure

          total   stress  (Ry/bohr**3)                   (kbar)     P=   -0.07
  -0.00000143   0.00000000   0.00000000         -0.21      0.00      0.00
   0.00000000  -0.00000000   0.00000000          0.00     -0.00      0.00
   0.00000000   0.00000000  -0.00000000          0.00      0.00     -0.00


     number of scf cycles    =   4
     number of bfgs steps    =   2

     energy   old            =      -2.3197589866 Ry
     energy   new            =      -2.3310085000 Ry

     CASE: energy  _new < energy  _old

     new trust radius        =       0.0159718924 bohr
     new conv_thr            =       0.0000001589 Ry


ATOMIC_POSITIONS (crystal)
H        0.010410873  -0.000000000   0.000000000
H        0.063790154   0.000000000   0.000000000



     Writing output data file H2_gas.save/
     NEW-OLD atomic charge density approx. for the potential

     negative rho (up, down):  8.091E-04 0.000E+00

     total cpu time spent up to now is     9027.1 secs

     Self-consistent Calculation

     iteration #  1     ecut=    50.00 Ry     beta= 0.70
     Davidson diagonalization with overlap
     ethr =  1.00E-06,  avg # of iterations =  3.0

     negative rho (up, down):  2.429E-04 0.000E+00

     total cpu time spent up to now is     9652.5 secs

     total energy              =      -2.33114868 Ry
     Harris-Foulkes estimate   =      -2.33121980 Ry
     estimated scf accuracy    <       0.00014922 Ry

     iteration #  2     ecut=    50.00 Ry     beta= 0.70
     Davidson diagonalization with overlap
     ethr =  7.46E-06,  avg # of iterations =  1.0

     negative rho (up, down):  7.999E-05 0.000E+00

     total cpu time spent up to now is    10020.9 secs

     total energy              =      -2.33116175 Ry
     Harris-Foulkes estimate   =      -2.33116198 Ry
     estimated scf accuracy    <       0.00000161 Ry

     iteration #  3     ecut=    50.00 Ry     beta= 0.70
     Davidson diagonalization with overlap
     ethr =  8.07E-08,  avg # of iterations =  2.0

     negative rho (up, down):  3.265E-05 0.000E+00

     total cpu time spent up to now is    10515.6 secs

     End of self-consistent calculation

     Number of k-points >= 100: set verbosity='high' to print the bands.

     highest occupied level (ev):   -10.3449

!    total energy              =      -2.33116207 Ry
     Harris-Foulkes estimate   =      -2.33116204 Ry
     estimated scf accuracy    <       0.00000007 Ry

     The total energy is the sum of the following terms:

     one-electron contribution =      -4.08566767 Ry
     hartree contribution      =       2.16439263 Ry
     xc contribution           =      -1.37378695 Ry
     ewald contribution        =       0.96389992 Ry

     convergence has been achieved in   3 iterations

     Forces acting on atoms (cartesian axes, Ry/au):

     atom    1 type  1   force =    -0.00660309    0.00000000    0.00000000
     atom    2 type  1   force =     0.00660309   -0.00000000    0.00000000

     Total force =     0.009338     Total SCF correction =     0.000069


     Computing stress (Cartesian axis) and pressure

          total   stress  (Ry/bohr**3)                   (kbar)     P=    0.03
   0.00000058   0.00000000   0.00000000          0.09      0.00      0.00
   0.00000000  -0.00000000   0.00000000          0.00     -0.00      0.00
   0.00000000   0.00000000  -0.00000000          0.00      0.00     -0.00


     number of scf cycles    =   5
     number of bfgs steps    =   3

     energy   old            =      -2.3310085000 Ry
     energy   new            =      -2.3311620742 Ry

     CASE: energy  _new < energy  _old

     new trust radius        =       0.0046880417 bohr
     new conv_thr            =       0.0000000154 Ry


ATOMIC_POSITIONS (crystal)
H        0.010233664  -0.000000000   0.000000000
H        0.063967362   0.000000000   0.000000000



     Writing output data file H2_gas.save/
     NEW-OLD atomic charge density approx. for the potential

     negative rho (up, down):  1.848E-04 0.000E+00

     total cpu time spent up to now is    10608.2 secs

     Self-consistent Calculation

     iteration #  1     ecut=    50.00 Ry     beta= 0.70
     Davidson diagonalization with overlap
     ethr =  1.00E-06,  avg # of iterations =  2.0

     negative rho (up, down):  6.824E-05 0.000E+00

     total cpu time spent up to now is    11105.0 secs

     total energy              =      -2.33119078 Ry
     Harris-Foulkes estimate   =      -2.33119646 Ry
     estimated scf accuracy    <       0.00001279 Ry

     iteration #  2     ecut=    50.00 Ry     beta= 0.70
     Davidson diagonalization with overlap
     ethr =  6.39E-07,  avg # of iterations =  1.0

     negative rho (up, down):  3.873E-05 0.000E+00

     total cpu time spent up to now is    11473.2 secs

     total energy              =      -2.33119192 Ry
     Harris-Foulkes estimate   =      -2.33119187 Ry
     estimated scf accuracy    <       0.00000015 Ry

     iteration #  3     ecut=    50.00 Ry     beta= 0.70
     Davidson diagonalization with overlap
     ethr =  7.73E-09,  avg # of iterations =  2.0

     negative rho (up, down):  3.250E-05 0.000E+00

     total cpu time spent up to now is    11968.0 secs

     End of self-consistent calculation

     Number of k-points >= 100: set verbosity='high' to print the bands.

     highest occupied level (ev):   -10.3232

!    total energy              =      -2.33119195 Ry
     Harris-Foulkes estimate   =      -2.33119195 Ry
     estimated scf accuracy    <          6.7E-09 Ry

     The total energy is the sum of the following terms:

     one-electron contribution =      -4.07283406 Ry
     hartree contribution      =       2.15779479 Ry
     xc contribution           =      -1.37071871 Ry
     ewald contribution        =       0.95456604 Ry

     convergence has been achieved in   3 iterations

     Forces acting on atoms (cartesian axes, Ry/au):

     atom    1 type  1   force =     0.00026267   -0.00000000    0.00000000
     atom    2 type  1   force =    -0.00026267    0.00000000    0.00000000

     Total force =     0.000371     Total SCF correction =     0.000024


     Computing stress (Cartesian axis) and pressure

          total   stress  (Ry/bohr**3)                   (kbar)     P=   -0.00
  -0.00000002   0.00000000   0.00000000         -0.00      0.00      0.00
   0.00000000   0.00000000   0.00000000          0.00      0.00      0.00
   0.00000000   0.00000000   0.00000000          0.00      0.00      0.00


     bfgs converged in   6 scf cycles and   4 bfgs steps
     (criteria: energy <  1.0E-04 Ry, force <  1.0E-03 Ry/Bohr)

     End of BFGS Geometry Optimization

     Final energy   =      -2.3311919485 Ry
Begin final coordinates

ATOMIC_POSITIONS (crystal)
H        0.010233664  -0.000000000   0.000000000
H        0.063967362   0.000000000   0.000000000
End final coordinates



     Writing output data file H2_gas.save/

     init_run     :    311.81s CPU    323.36s WALL (       1 calls)
     electrons    :  10558.67s CPU  11181.60s WALL (       6 calls)
     update_pot   :     63.77s CPU     66.82s WALL (       5 calls)
     forces       :    160.25s CPU    190.25s WALL (       6 calls)
     stress       :    227.47s CPU    259.58s WALL (       6 calls)

     Called by init_run:
     wfcinit      :    271.50s CPU    281.37s WALL (       1 calls)
     potinit      :     11.93s CPU     12.76s WALL (       1 calls)
     hinit0       :     22.80s CPU     23.14s WALL (       1 calls)

     Called by electrons:
     c_bands      :   8253.14s CPU   8789.97s WALL (      23 calls)
     sum_band     :   1995.31s CPU   2068.92s WALL (      23 calls)
     v_of_rho     :    270.27s CPU    281.60s WALL (      29 calls)
     newd         :     37.43s CPU     40.11s WALL (      29 calls)
     mix_rho      :     34.38s CPU     35.07s WALL (      23 calls)

     Called by c_bands:
     init_us_2    :    477.60s CPU    532.16s WALL (   53690 calls)
     cegterg      :   7931.80s CPU   8423.70s WALL (   20930 calls)

     Called by sum_band:
     sum_band:bec :      0.56s CPU      0.76s WALL (   20930 calls)
     addusdens    :     11.69s CPU     15.05s WALL (      23 calls)

     Called by *egterg:
     h_psi        :   7742.53s CPU   8056.75s WALL (   61880 calls)
     s_psi        :     90.13s CPU    139.88s WALL (   61880 calls)
     g_psi        :     40.61s CPU     60.71s WALL (   40040 calls)
     cdiaghg      :      2.09s CPU      2.99s WALL (   56420 calls)

     Called by h_psi:
     h_psi:pot    :   7724.83s CPU   8025.54s WALL (   61880 calls)
     h_psi:calbec :     84.81s CPU    126.83s WALL (   61880 calls)
     vloc_psi     :   7552.87s CPU   7770.37s WALL (   61880 calls)
     add_vuspsi   :     82.30s CPU    122.22s WALL (   61880 calls)

     General routines
     calbec       :    159.43s CPU    218.80s WALL (  110110 calls)
     fft          :    345.95s CPU    346.67s WALL (     418 calls)
     ffts         :      4.49s CPU      4.52s WALL (      52 calls)
     fftw         :   7346.41s CPU   7443.17s WALL (  146510 calls)
     interpolate  :     30.44s CPU     30.89s WALL (      29 calls)

     Parallel routines

     PWSCF        :      3h 9m CPU      3h22m WALL


   This run was terminated on:   1:38:59   2Jun2020            

=------------------------------------------------------------------------------=
   JOB DONE.
=------------------------------------------------------------------------------=
