--------------------------------------------------------------------------
[[22099,1],0]: A high-performance Open MPI point-to-point messaging module
was unable to find any relevant network interfaces:

Module: OpenFabrics (openib)
  Host: ubuntu

Another transport will be used instead, although this may result in
lower performance.
--------------------------------------------------------------------------

     Program PWSCF v.5.1 starts on 31May2020 at 20:58:53 

     This program is part of the open-source Quantum ESPRESSO suite
     for quantum simulation of materials; please cite
         "P. Giannozzi et al., J. Phys.:Condens. Matter 21 395502 (2009);
          URL http://www.quantum-espresso.org", 
     in publications or presentations arising from this work. More details at
     http://www.quantum-espresso.org/quote

     Parallel version (MPI), running on     1 processors
     Reading input from H2_16_15.118_60.pw.in

     Current dimensions of program PWSCF are:
     Max number of different atomic species (ntypx) = 10
     Max number of k-points (npk) =  40000
     Max angular momentum in pseudopotentials (lmaxx) =  3
               file H.pbe-rrkjus.UPF: wavefunction(s)  1S renormalized

     Subspace diagonalization in iterative solution of the eigenvalue problem:
     a serial algorithm will be used


     G-vector sticks info
     --------------------
     sticks:   dense  smooth     PW     G-vecs:    dense   smooth      PW
     Sum        4729    3793   1039               262475   188235   26685



     bravais-lattice index     =            4
     lattice parameter (alat)  =      15.1180  a.u.
     unit-cell volume          =    2992.3587 (a.u.)^3
     number of atoms/cell      =            2
     number of atomic types    =            1
     number of electrons       =         2.00
     number of Kohn-Sham states=            1
     kinetic-energy cutoff     =      60.0000  Ry
     charge density cutoff     =     300.0000  Ry
     convergence threshold     =      1.0E-06
     mixing beta               =       0.7000
     number of iterations used =            8  plain     mixing
     Exchange-correlation      =  SLA  PW   PBE  PBE ( 1  4  3  4 0)
     nstep                     =           50


     celldm(1)=  15.118000  celldm(2)=   0.000000  celldm(3)=   1.000000
     celldm(4)=   0.000000  celldm(5)=   0.000000  celldm(6)=   0.000000

     crystal axes: (cart. coord. in units of alat)
               a(1) = (   1.000000   0.000000   0.000000 )  
               a(2) = (  -0.500000   0.866025   0.000000 )  
               a(3) = (   0.000000   0.000000   1.000000 )  

     reciprocal axes: (cart. coord. in units 2 pi/alat)
               b(1) = (  1.000000  0.577350 -0.000000 )  
               b(2) = (  0.000000  1.154701  0.000000 )  
               b(3) = (  0.000000 -0.000000  1.000000 )  


     PseudoPot. # 1 for H  read from file:
     ./H.pbe-rrkjus.UPF
     MD5 check sum: 0433647300470310da31d564c103eed6
     Pseudo is Ultrasoft, Zval =  1.0
     Generated by new atomic code, or converted to UPF format
     Using radial grid of 1061 points,  2 beta functions with: 
                l(1) =   0
                l(2) =   0
     Q(r) pseudized with 0 coefficients 


     atomic species   valence    mass     pseudopotential
        H              1.00     1.00794     H ( 1.00)

      4 Sym. Ops. (no inversion) found
          (note:  4 additional sym.ops. were found but ignored
           their fractional translations are incommensurate with FFT grid)


   Cartesian axes

     site n.     atom                  positions (alat units)
         1           H   tau(   1) = (   0.0000000   0.0000000   0.0000000  )
         2           H   tau(   2) = (   0.0927488   0.0000000   0.0000000  )

     number of k points=   657

     Number of k-points >= 100: set verbosity='high' to print them.

     Dense  grid:   262475 G-vectors     FFT dimensions: (  90,  90,  90)

     Smooth grid:   188235 G-vectors     FFT dimensions: (  75,  75,  75)

     Largest allocated arrays     est. size (Mb)     dimensions
        Kohn-Sham Wavefunctions         0.36 Mb     (   23635,    1)
        NL pseudopotentials             1.44 Mb     (   23635,    4)
        Each V/rho on FFT grid         11.12 Mb     (  729000)
        Each G-vector array             2.00 Mb     (  262475)
        G-vector shells                 0.01 Mb     (    1631)
     Largest temporary arrays     est. size (Mb)     dimensions
        Auxiliary wavefunctions         1.44 Mb     (   23635,    4)
        Each subspace H/S matrix        0.00 Mb     (       4,    4)
        Each <psi_i|beta_j> matrix      0.00 Mb     (       4,    1)
        Arrays for rho mixing          88.99 Mb     (  729000,    8)

     Initial potential from superposition of free atoms

     starting charge    1.80759, renormalised to    2.00000

     negative rho (up, down):  4.615E-05 0.000E+00
     Starting wfc are    2 randomized atomic wfcs

     total cpu time spent up to now is       28.9 secs

     per-process dynamical memory:   354.4 Mb

     Self-consistent Calculation

     iteration #  1     ecut=    60.00 Ry     beta=0.70
     Davidson diagonalization with overlap
     ethr =  1.00E-02,  avg # of iterations =  2.0

     negative rho (up, down):  1.363E-05 0.000E+00

     total cpu time spent up to now is       68.9 secs

     total energy              =      -2.29277459 Ry
     Harris-Foulkes estimate   =      -2.70628363 Ry
     estimated scf accuracy    <       0.64206200 Ry

     iteration #  2     ecut=    60.00 Ry     beta=0.70
     Davidson diagonalization with overlap
     ethr =  1.00E-02,  avg # of iterations =  2.0

     negative rho (up, down):  3.042E-06 0.000E+00

     total cpu time spent up to now is      108.9 secs

     total energy              =      -2.32868800 Ry
     Harris-Foulkes estimate   =      -2.33658942 Ry
     estimated scf accuracy    <       0.01660448 Ry

     iteration #  3     ecut=    60.00 Ry     beta=0.70
     Davidson diagonalization with overlap
     ethr =  8.30E-04,  avg # of iterations =  2.0

     negative rho (up, down):  8.178E-07 0.000E+00

     total cpu time spent up to now is      152.3 secs

     total energy              =      -2.33104445 Ry
     Harris-Foulkes estimate   =      -2.33076019 Ry
     estimated scf accuracy    <       0.00076898 Ry

     iteration #  4     ecut=    60.00 Ry     beta=0.70
     Davidson diagonalization with overlap
     ethr =  3.84E-05,  avg # of iterations =  1.0

     negative rho (up, down):  2.817E-05 0.000E+00

     total cpu time spent up to now is      186.5 secs

     total energy              =      -2.33106599 Ry
     Harris-Foulkes estimate   =      -2.33108755 Ry
     estimated scf accuracy    <       0.00004636 Ry

     iteration #  5     ecut=    60.00 Ry     beta=0.70
     Davidson diagonalization with overlap
     ethr =  2.32E-06,  avg # of iterations =  2.0

     negative rho (up, down):  3.109E-06 0.000E+00

     total cpu time spent up to now is      226.0 secs

     End of self-consistent calculation

     Number of k-points >= 100: set verbosity='high' to print the bands.

     highest occupied level (ev):   -10.3008

!    total energy              =      -2.33107280 Ry
     Harris-Foulkes estimate   =      -2.33107300 Ry
     estimated scf accuracy    <       0.00000034 Ry

     The total energy is the sum of the following terms:

     one-electron contribution =      -3.43456255 Ry
     hartree contribution      =       1.84369276 Ry
     xc contribution           =      -1.37695966 Ry
     ewald contribution        =       0.63675665 Ry

     convergence has been achieved in   5 iterations

     Forces acting on atoms (Ry/au):

     atom    1 type  1   force =    -0.01431940    0.00000000    0.00000000
     atom    2 type  1   force =     0.01431940    0.00000000    0.00000000

     Total force =     0.020251     Total SCF correction =     0.000097


     entering subroutine stress ...

          total   stress  (Ry/bohr**3)                   (kbar)     P=    0.31
   0.00000660   0.00000000   0.00000000          0.97      0.00      0.00
   0.00000000  -0.00000013  -0.00000000          0.00     -0.02     -0.00
   0.00000000  -0.00000000  -0.00000013          0.00     -0.00     -0.02


     BFGS Geometry Optimization

     number of scf cycles    =   1
     number of bfgs steps    =   0

     energy   new            =      -2.3310727954 Ry

     new trust radius        =       0.0143193999 bohr
     new conv_thr            =       0.0000010000 Ry


ATOMIC_POSITIONS (crystal)
H       -0.000947176   0.000000000   0.000000000
H        0.093696004   0.000000000   0.000000000



     Writing output data file H2_gas.save
     NEW-OLD atomic charge density approx. for the potential

     negative rho (up, down):  2.206E-04 0.000E+00

     total cpu time spent up to now is      234.0 secs

     per-process dynamical memory:   376.1 Mb

     Self-consistent Calculation

     iteration #  1     ecut=    60.00 Ry     beta=0.70
     Davidson diagonalization with overlap
     ethr =  1.00E-06,  avg # of iterations =  3.0

     negative rho (up, down):  5.178E-05 0.000E+00

     total cpu time spent up to now is      283.8 secs

     total energy              =      -2.33116186 Ry
     Harris-Foulkes estimate   =      -2.33121643 Ry
     estimated scf accuracy    <       0.00011790 Ry

     iteration #  2     ecut=    60.00 Ry     beta=0.70
     Davidson diagonalization with overlap
     ethr =  5.89E-06,  avg # of iterations =  1.0

     negative rho (up, down):  1.022E-05 0.000E+00

     total cpu time spent up to now is      313.4 secs

     total energy              =      -2.33117275 Ry
     Harris-Foulkes estimate   =      -2.33117258 Ry
     estimated scf accuracy    <       0.00000129 Ry

     iteration #  3     ecut=    60.00 Ry     beta=0.70
     Davidson diagonalization with overlap
     ethr =  6.44E-08,  avg # of iterations =  2.0

     negative rho (up, down):  2.866E-06 0.000E+00

     total cpu time spent up to now is      352.6 secs

     End of self-consistent calculation

     Number of k-points >= 100: set verbosity='high' to print the bands.

     highest occupied level (ev):   -10.2341

!    total energy              =      -2.33117297 Ry
     Harris-Foulkes estimate   =      -2.33117298 Ry
     estimated scf accuracy    <       0.00000006 Ry

     The total energy is the sum of the following terms:

     one-electron contribution =      -3.39571446 Ry
     hartree contribution      =       1.82388038 Ry
     xc contribution           =      -1.36767142 Ry
     ewald contribution        =       0.60833254 Ry

     convergence has been achieved in   3 iterations

     Forces acting on atoms (Ry/au):

     atom    1 type  1   force =     0.00687055   -0.00000000    0.00000000
     atom    2 type  1   force =    -0.00687055    0.00000000    0.00000000

     Total force =     0.009716     Total SCF correction =     0.000041


     entering subroutine stress ...

          total   stress  (Ry/bohr**3)                   (kbar)     P=   -0.16
  -0.00000328   0.00000000   0.00000000         -0.48      0.00      0.00
   0.00000000  -0.00000002   0.00000000          0.00     -0.00      0.00
   0.00000000   0.00000000  -0.00000001          0.00      0.00     -0.00


     number of scf cycles    =   2
     number of bfgs steps    =   1

     energy   old            =      -2.3310727954 Ry
     energy   new            =      -2.3311729651 Ry

     CASE: energy  _new < energy  _old

     new trust radius        =       0.0046428699 bohr
     new conv_thr            =       0.0000000100 Ry


ATOMIC_POSITIONS (crystal)
H       -0.000640067  -0.000000000   0.000000000
H        0.093388896   0.000000000   0.000000000



     Writing output data file H2_gas.save
     NEW-OLD atomic charge density approx. for the potential

     negative rho (up, down):  7.628E-05 0.000E+00

     total cpu time spent up to now is      361.2 secs

     per-process dynamical memory:   376.1 Mb

     Self-consistent Calculation

     iteration #  1     ecut=    60.00 Ry     beta=0.70
     Davidson diagonalization with overlap
     ethr =  1.00E-06,  avg # of iterations =  2.0

     negative rho (up, down):  1.774E-05 0.000E+00

     total cpu time spent up to now is      400.5 secs

     total energy              =      -2.33120478 Ry
     Harris-Foulkes estimate   =      -2.33121065 Ry
     estimated scf accuracy    <       0.00001240 Ry

     iteration #  2     ecut=    60.00 Ry     beta=0.70
     Davidson diagonalization with overlap
     ethr =  6.20E-07,  avg # of iterations =  1.0

     negative rho (up, down):  4.632E-06 0.000E+00

     total cpu time spent up to now is      429.8 secs

     total energy              =      -2.33120583 Ry
     Harris-Foulkes estimate   =      -2.33120583 Ry
     estimated scf accuracy    <       0.00000015 Ry

     iteration #  3     ecut=    60.00 Ry     beta=0.70
     Davidson diagonalization with overlap
     ethr =  7.59E-09,  avg # of iterations =  2.0

     negative rho (up, down):  2.944E-06 0.000E+00

     total cpu time spent up to now is      468.7 secs

     End of self-consistent calculation

     Number of k-points >= 100: set verbosity='high' to print the bands.

     highest occupied level (ev):   -10.2557

!    total energy              =      -2.33120588 Ry
     Harris-Foulkes estimate   =      -2.33120586 Ry
     estimated scf accuracy    <          6.5E-09 Ry

     The total energy is the sum of the following terms:

     one-electron contribution =      -3.40826091 Ry
     hartree contribution      =       1.83032442 Ry
     xc contribution           =      -1.37069176 Ry
     ewald contribution        =       0.61742236 Ry

     convergence has been achieved in   3 iterations

     Forces acting on atoms (Ry/au):

     atom    1 type  1   force =     0.00022503    0.00000000    0.00000000
     atom    2 type  1   force =    -0.00022503   -0.00000000    0.00000000

     Total force =     0.000318     Total SCF correction =     0.000010


     entering subroutine stress ...

          total   stress  (Ry/bohr**3)                   (kbar)     P=   -0.01
  -0.00000013   0.00000000   0.00000000         -0.02      0.00      0.00
   0.00000000  -0.00000004   0.00000000          0.00     -0.01      0.00
   0.00000000   0.00000000  -0.00000004          0.00      0.00     -0.01


     bfgs converged in   3 scf cycles and   2 bfgs steps
     (criteria: energy <  1.0E-04, force <  1.0E-03)

     End of BFGS Geometry Optimization

     Final energy   =      -2.3312058843 Ry
Begin final coordinates

ATOMIC_POSITIONS (crystal)
H       -0.000640067  -0.000000000   0.000000000
H        0.093388896   0.000000000   0.000000000
End final coordinates



     Writing output data file H2_gas.save

     init_run     :     20.79s CPU     28.83s WALL (       1 calls)
     electrons    :    270.32s CPU    423.40s WALL (       3 calls)
     update_pot   :      1.26s CPU      1.39s WALL (       2 calls)
     forces       :      3.59s CPU      6.33s WALL (       3 calls)
     stress       :      7.07s CPU     12.74s WALL (       3 calls)

     Called by init_run:
     wfcinit      :     17.86s CPU     25.69s WALL (       1 calls)
     potinit      :      0.74s CPU      0.79s WALL (       1 calls)

     Called by electrons:
     c_bands      :    222.78s CPU    348.11s WALL (      11 calls)
     sum_band     :     41.34s CPU     68.59s WALL (      11 calls)
     v_of_rho     :      5.98s CPU      6.37s WALL (      14 calls)
     newd         :      0.57s CPU      0.61s WALL (      14 calls)
     mix_rho      :      0.50s CPU      0.56s WALL (      11 calls)

     Called by c_bands:
     init_us_2    :      7.17s CPU     22.73s WALL (   19053 calls)
     cegterg      :    219.99s CPU    334.53s WALL (    7227 calls)

     Called by *egterg:
     h_psi        :    230.10s CPU    335.90s WALL (   21024 calls)
     s_psi        :      1.22s CPU      4.03s WALL (   21024 calls)
     g_psi        :      0.31s CPU      1.56s WALL (   13140 calls)
     cdiaghg      :      0.19s CPU      0.81s WALL (   19053 calls)

     Called by h_psi:
     add_vuspsi   :      1.82s CPU      4.44s WALL (   21024 calls)

     General routines
     calbec       :      3.84s CPU      8.63s WALL (   32193 calls)
     fft          :      4.96s CPU      5.45s WALL (     238 calls)
     ffts         :      0.16s CPU      0.23s WALL (      25 calls)
     fftw         :    243.83s CPU    333.31s WALL (   50589 calls)
     interpolate  :      0.76s CPU      0.92s WALL (      25 calls)
     davcio       :      0.00s CPU      0.08s WALL (     657 calls)

     Parallel routines
     fft_scatter  :      6.12s CPU     21.97s WALL (   50852 calls)

     PWSCF        :  5m 5.91s CPU     7m56.01s WALL


   This run was terminated on:  21: 6:49  31May2020            

=------------------------------------------------------------------------------=
   JOB DONE.
=------------------------------------------------------------------------------=
