--------------------------------------------------------------------------
[[22091,1],0]: A high-performance Open MPI point-to-point messaging module
was unable to find any relevant network interfaces:

Module: OpenFabrics (openib)
  Host: ubuntu

Another transport will be used instead, although this may result in
lower performance.
--------------------------------------------------------------------------

     Program PWSCF v.5.1 starts on 31May2020 at 21:20:47 

     This program is part of the open-source Quantum ESPRESSO suite
     for quantum simulation of materials; please cite
         "P. Giannozzi et al., J. Phys.:Condens. Matter 21 395502 (2009);
          URL http://www.quantum-espresso.org", 
     in publications or presentations arising from this work. More details at
     http://www.quantum-espresso.org/quote

     Parallel version (MPI), running on     1 processors
     Reading input from H2_18_15.118_50.pw.in

     Current dimensions of program PWSCF are:
     Max number of different atomic species (ntypx) = 10
     Max number of k-points (npk) =  40000
     Max angular momentum in pseudopotentials (lmaxx) =  3
               file H.pbe-rrkjus.UPF: wavefunction(s)  1S renormalized

     Subspace diagonalization in iterative solution of the eigenvalue problem:
     a serial algorithm will be used


     G-vector sticks info
     --------------------
     sticks:   dense  smooth     PW     G-vecs:    dense   smooth      PW
     Sum        7873    3145    859               565091   142857   20669



     bravais-lattice index     =            4
     lattice parameter (alat)  =      15.1180  a.u.
     unit-cell volume          =    2992.3587 (a.u.)^3
     number of atoms/cell      =            2
     number of atomic types    =            1
     number of electrons       =         2.00
     number of Kohn-Sham states=            1
     kinetic-energy cutoff     =      50.0000  Ry
     charge density cutoff     =     500.0000  Ry
     convergence threshold     =      1.0E-06
     mixing beta               =       0.7000
     number of iterations used =            8  plain     mixing
     Exchange-correlation      =  SLA  PW   PBE  PBE ( 1  4  3  4 0)
     nstep                     =           50


     celldm(1)=  15.118000  celldm(2)=   0.000000  celldm(3)=   1.000000
     celldm(4)=   0.000000  celldm(5)=   0.000000  celldm(6)=   0.000000

     crystal axes: (cart. coord. in units of alat)
               a(1) = (   1.000000   0.000000   0.000000 )  
               a(2) = (  -0.500000   0.866025   0.000000 )  
               a(3) = (   0.000000   0.000000   1.000000 )  

     reciprocal axes: (cart. coord. in units 2 pi/alat)
               b(1) = (  1.000000  0.577350 -0.000000 )  
               b(2) = (  0.000000  1.154701  0.000000 )  
               b(3) = (  0.000000 -0.000000  1.000000 )  


     PseudoPot. # 1 for H  read from file:
     ./H.pbe-rrkjus.UPF
     MD5 check sum: 0433647300470310da31d564c103eed6
     Pseudo is Ultrasoft, Zval =  1.0
     Generated by new atomic code, or converted to UPF format
     Using radial grid of 1061 points,  2 beta functions with: 
                l(1) =   0
                l(2) =   0
     Q(r) pseudized with 0 coefficients 


     atomic species   valence    mass     pseudopotential
        H              1.00     1.00794     H ( 1.00)

      4 Sym. Ops. (no inversion) found
          (note:  4 additional sym.ops. were found but ignored
           their fractional translations are incommensurate with FFT grid)


   Cartesian axes

     site n.     atom                  positions (alat units)
         1           H   tau(   1) = (   0.0000000   0.0000000   0.0000000  )
         2           H   tau(   2) = (   0.0927488   0.0000000   0.0000000  )

     number of k points=   910

     Number of k-points >= 100: set verbosity='high' to print them.

     Dense  grid:   565091 G-vectors     FFT dimensions: ( 108, 108, 108)

     Smooth grid:   142857 G-vectors     FFT dimensions: (  72,  72,  72)

     Largest allocated arrays     est. size (Mb)     dimensions
        Kohn-Sham Wavefunctions         0.27 Mb     (   17922,    1)
        NL pseudopotentials             1.09 Mb     (   17922,    4)
        Each V/rho on FFT grid         19.22 Mb     ( 1259712)
        Each G-vector array             4.31 Mb     (  565091)
        G-vector shells                 0.02 Mb     (    2716)
     Largest temporary arrays     est. size (Mb)     dimensions
        Auxiliary wavefunctions         1.09 Mb     (   17922,    4)
        Each subspace H/S matrix        0.00 Mb     (       4,    4)
        Each <psi_i|beta_j> matrix      0.00 Mb     (       4,    1)
        Arrays for rho mixing         153.77 Mb     ( 1259712,    8)

     Initial potential from superposition of free atoms

     starting charge    1.80759, renormalised to    2.00000

     negative rho (up, down):  4.503E-05 0.000E+00
     Starting wfc are    2 randomized atomic wfcs

     total cpu time spent up to now is       28.2 secs

     per-process dynamical memory:   456.0 Mb

     Self-consistent Calculation

     iteration #  1     ecut=    50.00 Ry     beta=0.70
     Davidson diagonalization with overlap
     ethr =  1.00E-02,  avg # of iterations =  2.0

     negative rho (up, down):  1.331E-05 0.000E+00

     total cpu time spent up to now is       70.8 secs

     total energy              =      -2.29275620 Ry
     Harris-Foulkes estimate   =      -2.70624728 Ry
     estimated scf accuracy    <       0.64205533 Ry

     iteration #  2     ecut=    50.00 Ry     beta=0.70
     Davidson diagonalization with overlap
     ethr =  1.00E-02,  avg # of iterations =  2.0

     negative rho (up, down):  4.400E-06 0.000E+00

     total cpu time spent up to now is      113.9 secs

     total energy              =      -2.32866463 Ry
     Harris-Foulkes estimate   =      -2.33656847 Ry
     estimated scf accuracy    <       0.01660427 Ry

     iteration #  3     ecut=    50.00 Ry     beta=0.70
     Davidson diagonalization with overlap
     ethr =  8.30E-04,  avg # of iterations =  2.0

     negative rho (up, down):  2.765E-06 0.000E+00

     total cpu time spent up to now is      156.7 secs

     total energy              =      -2.33102573 Ry
     Harris-Foulkes estimate   =      -2.33073635 Ry
     estimated scf accuracy    <       0.00076888 Ry

     iteration #  4     ecut=    50.00 Ry     beta=0.70
     Davidson diagonalization with overlap
     ethr =  3.84E-05,  avg # of iterations =  1.0

     negative rho (up, down):  3.116E-05 0.000E+00

     total cpu time spent up to now is      188.2 secs

     total energy              =      -2.33104720 Ry
     Harris-Foulkes estimate   =      -2.33106878 Ry
     estimated scf accuracy    <       0.00004632 Ry

     iteration #  5     ecut=    50.00 Ry     beta=0.70
     Davidson diagonalization with overlap
     ethr =  2.32E-06,  avg # of iterations =  2.0

     negative rho (up, down):  2.896E-06 0.000E+00

     total cpu time spent up to now is      231.1 secs

     End of self-consistent calculation

     Number of k-points >= 100: set verbosity='high' to print the bands.

     highest occupied level (ev):   -10.3007

!    total energy              =      -2.33105396 Ry
     Harris-Foulkes estimate   =      -2.33105420 Ry
     estimated scf accuracy    <       0.00000034 Ry

     The total energy is the sum of the following terms:

     one-electron contribution =      -3.43453756 Ry
     hartree contribution      =       1.84368712 Ry
     xc contribution           =      -1.37696017 Ry
     ewald contribution        =       0.63675665 Ry

     convergence has been achieved in   5 iterations

     Forces acting on atoms (Ry/au):

     atom    1 type  1   force =    -0.01433177    0.00000000    0.00000000
     atom    2 type  1   force =     0.01433177    0.00000000    0.00000000

     Total force =     0.020268     Total SCF correction =     0.000102


     entering subroutine stress ...

          total   stress  (Ry/bohr**3)                   (kbar)     P=    0.31
   0.00000663   0.00000000   0.00000000          0.98      0.00      0.00
   0.00000000  -0.00000011   0.00000000          0.00     -0.02      0.00
   0.00000000   0.00000000  -0.00000010          0.00      0.00     -0.02


     BFGS Geometry Optimization

     number of scf cycles    =   1
     number of bfgs steps    =   0

     energy   new            =      -2.3310539571 Ry

     new trust radius        =       0.0143317678 bohr
     new conv_thr            =       0.0000010000 Ry


ATOMIC_POSITIONS (crystal)
H       -0.000947994   0.000000000   0.000000000
H        0.093696822   0.000000000   0.000000000



     Writing output data file H2_gas.save
     NEW-OLD atomic charge density approx. for the potential

     negative rho (up, down):  2.598E-04 0.000E+00

     total cpu time spent up to now is      241.4 secs

     per-process dynamical memory:   497.5 Mb

     Self-consistent Calculation

     iteration #  1     ecut=    50.00 Ry     beta=0.70
     Davidson diagonalization with overlap
     ethr =  1.00E-06,  avg # of iterations =  3.0

     negative rho (up, down):  6.156E-05 0.000E+00

     total cpu time spent up to now is      297.8 secs

     total energy              =      -2.33114320 Ry
     Harris-Foulkes estimate   =      -2.33119802 Ry
     estimated scf accuracy    <       0.00011812 Ry

     iteration #  2     ecut=    50.00 Ry     beta=0.70
     Davidson diagonalization with overlap
     ethr =  5.91E-06,  avg # of iterations =  1.0

     negative rho (up, down):  1.327E-05 0.000E+00

     total cpu time spent up to now is      329.3 secs

     total energy              =      -2.33115415 Ry
     Harris-Foulkes estimate   =      -2.33115395 Ry
     estimated scf accuracy    <       0.00000129 Ry

     iteration #  3     ecut=    50.00 Ry     beta=0.70
     Davidson diagonalization with overlap
     ethr =  6.44E-08,  avg # of iterations =  2.0

     negative rho (up, down):  2.709E-06 0.000E+00

     total cpu time spent up to now is      371.9 secs

     End of self-consistent calculation

     Number of k-points >= 100: set verbosity='high' to print the bands.

     highest occupied level (ev):   -10.2339

!    total energy              =      -2.33115439 Ry
     Harris-Foulkes estimate   =      -2.33115437 Ry
     estimated scf accuracy    <       0.00000006 Ry

     The total energy is the sum of the following terms:

     one-electron contribution =      -3.39565624 Ry
     hartree contribution      =       1.82385722 Ry
     xc contribution           =      -1.36766384 Ry
     ewald contribution        =       0.60830848 Ry

     convergence has been achieved in   3 iterations

     Forces acting on atoms (Ry/au):

     atom    1 type  1   force =     0.00688463   -0.00000000    0.00000000
     atom    2 type  1   force =    -0.00688463    0.00000000    0.00000000

     Total force =     0.009736     Total SCF correction =     0.000051


     entering subroutine stress ...

          total   stress  (Ry/bohr**3)                   (kbar)     P=   -0.16
  -0.00000327   0.00000000   0.00000000         -0.48      0.00      0.00
   0.00000000   0.00000001   0.00000000          0.00      0.00      0.00
   0.00000000   0.00000000   0.00000001          0.00      0.00      0.00


     number of scf cycles    =   2
     number of bfgs steps    =   1

     energy   old            =      -2.3310539571 Ry
     energy   new            =      -2.3311543854 Ry

     CASE: energy  _new < energy  _old

     new trust radius        =       0.0046505987 bohr
     new conv_thr            =       0.0000000100 Ry


ATOMIC_POSITIONS (crystal)
H       -0.000640374  -0.000000000   0.000000000
H        0.093389202   0.000000000   0.000000000



     Writing output data file H2_gas.save
     NEW-OLD atomic charge density approx. for the potential

     negative rho (up, down):  8.736E-05 0.000E+00

     total cpu time spent up to now is      382.4 secs

     per-process dynamical memory:   497.5 Mb

     Self-consistent Calculation

     iteration #  1     ecut=    50.00 Ry     beta=0.70
     Davidson diagonalization with overlap
     ethr =  1.00E-06,  avg # of iterations =  2.0

     negative rho (up, down):  2.032E-05 0.000E+00

     total cpu time spent up to now is      425.3 secs

     total energy              =      -2.33118621 Ry
     Harris-Foulkes estimate   =      -2.33119217 Ry
     estimated scf accuracy    <       0.00001247 Ry

     iteration #  2     ecut=    50.00 Ry     beta=0.70
     Davidson diagonalization with overlap
     ethr =  6.23E-07,  avg # of iterations =  1.0

     negative rho (up, down):  5.239E-06 0.000E+00

     total cpu time spent up to now is      456.3 secs

     total energy              =      -2.33118729 Ry
     Harris-Foulkes estimate   =      -2.33118727 Ry
     estimated scf accuracy    <       0.00000015 Ry

     iteration #  3     ecut=    50.00 Ry     beta=0.70
     Davidson diagonalization with overlap
     ethr =  7.55E-09,  avg # of iterations =  2.0

     negative rho (up, down):  2.772E-06 0.000E+00

     total cpu time spent up to now is      498.8 secs

     End of self-consistent calculation

     Number of k-points >= 100: set verbosity='high' to print the bands.

     highest occupied level (ev):   -10.2556

!    total energy              =      -2.33118735 Ry
     Harris-Foulkes estimate   =      -2.33118732 Ry
     estimated scf accuracy    <          6.4E-09 Ry

     The total energy is the sum of the following terms:

     one-electron contribution =      -3.40822450 Ry
     hartree contribution      =       1.83031421 Ry
     xc contribution           =      -1.37069029 Ry
     ewald contribution        =       0.61741322 Ry

     convergence has been achieved in   3 iterations

     Forces acting on atoms (Ry/au):

     atom    1 type  1   force =     0.00021526    0.00000000    0.00000000
     atom    2 type  1   force =    -0.00021526    0.00000000    0.00000000

     Total force =     0.000304     Total SCF correction =     0.000018


     entering subroutine stress ...

          total   stress  (Ry/bohr**3)                   (kbar)     P=   -0.01
  -0.00000011   0.00000000   0.00000000         -0.02      0.00      0.00
   0.00000000  -0.00000001   0.00000000          0.00     -0.00      0.00
   0.00000000   0.00000000  -0.00000001          0.00      0.00     -0.00


     bfgs converged in   3 scf cycles and   2 bfgs steps
     (criteria: energy <  1.0E-04, force <  1.0E-03)

     End of BFGS Geometry Optimization

     Final energy   =      -2.3311873537 Ry
Begin final coordinates

ATOMIC_POSITIONS (crystal)
H       -0.000640374  -0.000000000   0.000000000
H        0.093389202   0.000000000   0.000000000
End final coordinates



     Writing output data file H2_gas.save

 %%%%%%%%%%%%%%%%%%%%%%%%%%%%%%%%%%%%%%%%%%%%%%%%%%%%%%%%%%%%%%%%%%%%%%%%%%%%%%
     Error in routine davcio (10):
     error while writing from file "./tmp/H2_gas.wfc1"
 %%%%%%%%%%%%%%%%%%%%%%%%%%%%%%%%%%%%%%%%%%%%%%%%%%%%%%%%%%%%%%%%%%%%%%%%%%%%%%

     stopping ...
--------------------------------------------------------------------------
MPI_ABORT was invoked on rank 0 in communicator MPI_COMM_WORLD 
with errorcode 1.

NOTE: invoking MPI_ABORT causes Open MPI to kill all MPI processes.
You may or may not see output from other processes, depending on
exactly when Open MPI kills them.
--------------------------------------------------------------------------
