--------------------------------------------------------------------------
[[20923,1],0]: A high-performance Open MPI point-to-point messaging module
was unable to find any relevant network interfaces:

Module: OpenFabrics (openib)
  Host: ubuntu

Another transport will be used instead, although this may result in
lower performance.
--------------------------------------------------------------------------

     Program PWSCF v.5.1 starts on 31May2020 at 20:45:23 

     This program is part of the open-source Quantum ESPRESSO suite
     for quantum simulation of materials; please cite
         "P. Giannozzi et al., J. Phys.:Condens. Matter 21 395502 (2009);
          URL http://www.quantum-espresso.org", 
     in publications or presentations arising from this work. More details at
     http://www.quantum-espresso.org/quote

     Parallel version (MPI), running on     1 processors
     Reading input from H2_16_15.118_30.pw.in

     Current dimensions of program PWSCF are:
     Max number of different atomic species (ntypx) = 10
     Max number of k-points (npk) =  40000
     Max angular momentum in pseudopotentials (lmaxx) =  3
               file H.pbe-rrkjus.UPF: wavefunction(s)  1S renormalized

     Subspace diagonalization in iterative solution of the eigenvalue problem:
     a serial algorithm will be used


     G-vector sticks info
     --------------------
     sticks:   dense  smooth     PW     G-vecs:    dense   smooth      PW
     Sum        4729    1891    517               262475    66563    9855



     bravais-lattice index     =            4
     lattice parameter (alat)  =      15.1180  a.u.
     unit-cell volume          =    2992.3587 (a.u.)^3
     number of atoms/cell      =            2
     number of atomic types    =            1
     number of electrons       =         2.00
     number of Kohn-Sham states=            1
     kinetic-energy cutoff     =      30.0000  Ry
     charge density cutoff     =     300.0000  Ry
     convergence threshold     =      1.0E-06
     mixing beta               =       0.7000
     number of iterations used =            8  plain     mixing
     Exchange-correlation      =  SLA  PW   PBE  PBE ( 1  4  3  4 0)
     nstep                     =           50


     celldm(1)=  15.118000  celldm(2)=   0.000000  celldm(3)=   1.000000
     celldm(4)=   0.000000  celldm(5)=   0.000000  celldm(6)=   0.000000

     crystal axes: (cart. coord. in units of alat)
               a(1) = (   1.000000   0.000000   0.000000 )  
               a(2) = (  -0.500000   0.866025   0.000000 )  
               a(3) = (   0.000000   0.000000   1.000000 )  

     reciprocal axes: (cart. coord. in units 2 pi/alat)
               b(1) = (  1.000000  0.577350 -0.000000 )  
               b(2) = (  0.000000  1.154701  0.000000 )  
               b(3) = (  0.000000 -0.000000  1.000000 )  


     PseudoPot. # 1 for H  read from file:
     ./H.pbe-rrkjus.UPF
     MD5 check sum: 0433647300470310da31d564c103eed6
     Pseudo is Ultrasoft, Zval =  1.0
     Generated by new atomic code, or converted to UPF format
     Using radial grid of 1061 points,  2 beta functions with: 
                l(1) =   0
                l(2) =   0
     Q(r) pseudized with 0 coefficients 


     atomic species   valence    mass     pseudopotential
        H              1.00     1.00794     H ( 1.00)

      4 Sym. Ops. (no inversion) found
          (note:  4 additional sym.ops. were found but ignored
           their fractional translations are incommensurate with FFT grid)


   Cartesian axes

     site n.     atom                  positions (alat units)
         1           H   tau(   1) = (   0.0000000   0.0000000   0.0000000  )
         2           H   tau(   2) = (   0.0927488   0.0000000   0.0000000  )

     number of k points=   657

     Number of k-points >= 100: set verbosity='high' to print them.

     Dense  grid:   262475 G-vectors     FFT dimensions: (  90,  90,  90)

     Smooth grid:    66563 G-vectors     FFT dimensions: (  54,  54,  54)

     Largest allocated arrays     est. size (Mb)     dimensions
        Kohn-Sham Wavefunctions         0.13 Mb     (    8373,    1)
        NL pseudopotentials             0.51 Mb     (    8373,    4)
        Each V/rho on FFT grid         11.12 Mb     (  729000)
        Each G-vector array             2.00 Mb     (  262475)
        G-vector shells                 0.01 Mb     (    1631)
     Largest temporary arrays     est. size (Mb)     dimensions
        Auxiliary wavefunctions         0.51 Mb     (    8373,    4)
        Each subspace H/S matrix        0.00 Mb     (       4,    4)
        Each <psi_i|beta_j> matrix      0.00 Mb     (       4,    1)
        Arrays for rho mixing          88.99 Mb     (  729000,    8)

     Initial potential from superposition of free atoms

     starting charge    1.80759, renormalised to    2.00000

     negative rho (up, down):  4.615E-05 0.000E+00
     Starting wfc are    2 randomized atomic wfcs

     total cpu time spent up to now is       12.3 secs

     per-process dynamical memory:   190.4 Mb

     Self-consistent Calculation

     iteration #  1     ecut=    30.00 Ry     beta=0.70
     Davidson diagonalization with overlap
     ethr =  1.00E-02,  avg # of iterations =  2.0

     negative rho (up, down):  1.361E-05 0.000E+00

     total cpu time spent up to now is       34.8 secs

     total energy              =      -2.29215472 Ry
     Harris-Foulkes estimate   =      -2.70516444 Ry
     estimated scf accuracy    <       0.64131656 Ry

     iteration #  2     ecut=    30.00 Ry     beta=0.70
     Davidson diagonalization with overlap
     ethr =  1.00E-02,  avg # of iterations =  2.0

     negative rho (up, down):  4.475E-06 0.000E+00

     total cpu time spent up to now is       58.0 secs

     total energy              =      -2.32795595 Ry
     Harris-Foulkes estimate   =      -2.33586167 Ry
     estimated scf accuracy    <       0.01660964 Ry

     iteration #  3     ecut=    30.00 Ry     beta=0.70
     Davidson diagonalization with overlap
     ethr =  8.30E-04,  avg # of iterations =  2.0

     negative rho (up, down):  3.412E-06 0.000E+00

     total cpu time spent up to now is       80.4 secs

     total energy              =      -2.33031692 Ry
     Harris-Foulkes estimate   =      -2.33003086 Ry
     estimated scf accuracy    <       0.00076838 Ry

     iteration #  4     ecut=    30.00 Ry     beta=0.70
     Davidson diagonalization with overlap
     ethr =  3.84E-05,  avg # of iterations =  1.0

     negative rho (up, down):  3.234E-05 0.000E+00

     total cpu time spent up to now is       96.7 secs

     total energy              =      -2.33033831 Ry
     Harris-Foulkes estimate   =      -2.33036006 Ry
     estimated scf accuracy    <       0.00004644 Ry

     iteration #  5     ecut=    30.00 Ry     beta=0.70
     Davidson diagonalization with overlap
     ethr =  2.32E-06,  avg # of iterations =  2.0

     negative rho (up, down):  2.895E-06 0.000E+00

     total cpu time spent up to now is      121.6 secs

     End of self-consistent calculation

     Number of k-points >= 100: set verbosity='high' to print the bands.

     highest occupied level (ev):   -10.2995

!    total energy              =      -2.33034514 Ry
     Harris-Foulkes estimate   =      -2.33034531 Ry
     estimated scf accuracy    <       0.00000034 Ry

     The total energy is the sum of the following terms:

     one-electron contribution =      -3.43367528 Ry
     hartree contribution      =       1.84306111 Ry
     xc contribution           =      -1.37648762 Ry
     ewald contribution        =       0.63675665 Ry

     convergence has been achieved in   5 iterations

     Forces acting on atoms (Ry/au):

     atom    1 type  1   force =    -0.01455538    0.00000000    0.00000000
     atom    2 type  1   force =     0.01455538    0.00000000    0.00000000

     Total force =     0.020584     Total SCF correction =     0.000101


     entering subroutine stress ...

          total   stress  (Ry/bohr**3)                   (kbar)     P=    0.13
   0.00000531   0.00000000   0.00000000          0.78      0.00      0.00
   0.00000000  -0.00000136   0.00000000          0.00     -0.20      0.00
   0.00000000   0.00000000  -0.00000135          0.00      0.00     -0.20


     BFGS Geometry Optimization

     number of scf cycles    =   1
     number of bfgs steps    =   0

     energy   new            =      -2.3303451373 Ry

     new trust radius        =       0.0145553809 bohr
     new conv_thr            =       0.0000010000 Ry


ATOMIC_POSITIONS (crystal)
H       -0.000962785   0.000000000   0.000000000
H        0.093711614   0.000000000   0.000000000



     Writing output data file H2_gas.save
     NEW-OLD atomic charge density approx. for the potential

     negative rho (up, down):  2.239E-04 0.000E+00

     total cpu time spent up to now is      126.2 secs

     per-process dynamical memory:   214.5 Mb

     Self-consistent Calculation

     iteration #  1     ecut=    30.00 Ry     beta=0.70
     Davidson diagonalization with overlap
     ethr =  1.00E-06,  avg # of iterations =  3.0

     negative rho (up, down):  5.231E-05 0.000E+00

     total cpu time spent up to now is      154.4 secs

     total energy              =      -2.33043840 Ry
     Harris-Foulkes estimate   =      -2.33049465 Ry
     estimated scf accuracy    <       0.00012166 Ry

     iteration #  2     ecut=    30.00 Ry     beta=0.70
     Davidson diagonalization with overlap
     ethr =  6.08E-06,  avg # of iterations =  1.0

     negative rho (up, down):  1.097E-05 0.000E+00

     total cpu time spent up to now is      171.1 secs

     total energy              =      -2.33044964 Ry
     Harris-Foulkes estimate   =      -2.33044943 Ry
     estimated scf accuracy    <       0.00000132 Ry

     iteration #  3     ecut=    30.00 Ry     beta=0.70
     Davidson diagonalization with overlap
     ethr =  6.58E-08,  avg # of iterations =  2.0

     negative rho (up, down):  2.659E-06 0.000E+00

     total cpu time spent up to now is      193.7 secs

     End of self-consistent calculation

     Number of k-points >= 100: set verbosity='high' to print the bands.

     highest occupied level (ev):   -10.2316

!    total energy              =      -2.33044983 Ry
     Harris-Foulkes estimate   =      -2.33044987 Ry
     estimated scf accuracy    <       0.00000007 Ry

     The total energy is the sum of the following terms:

     one-electron contribution =      -3.39419601 Ry
     hartree contribution      =       1.82292086 Ry
     xc contribution           =      -1.36704840 Ry
     ewald contribution        =       0.60787370 Ry

     convergence has been achieved in   3 iterations

     Forces acting on atoms (Ry/au):

     atom    1 type  1   force =     0.00690750    0.00000000    0.00000000
     atom    2 type  1   force =    -0.00690750    0.00000000    0.00000000

     Total force =     0.009769     Total SCF correction =     0.000046


     entering subroutine stress ...

          total   stress  (Ry/bohr**3)                   (kbar)     P=   -0.35
  -0.00000472   0.00000000   0.00000000         -0.69      0.00      0.00
   0.00000000  -0.00000123   0.00000000          0.00     -0.18      0.00
   0.00000000   0.00000000  -0.00000122          0.00      0.00     -0.18


     number of scf cycles    =   2
     number of bfgs steps    =   1

     energy   old            =      -2.3303451373 Ry
     energy   new            =      -2.3304498321 Ry

     CASE: energy  _new < energy  _old

     new trust radius        =       0.0046844268 bohr
     new conv_thr            =       0.0000000105 Ry


ATOMIC_POSITIONS (crystal)
H       -0.000652927   0.000000000   0.000000000
H        0.093401756   0.000000000   0.000000000



     Writing output data file H2_gas.save
     NEW-OLD atomic charge density approx. for the potential

     negative rho (up, down):  7.653E-05 0.000E+00

     total cpu time spent up to now is      198.1 secs

     per-process dynamical memory:   214.5 Mb

     Self-consistent Calculation

     iteration #  1     ecut=    30.00 Ry     beta=0.70
     Davidson diagonalization with overlap
     ethr =  1.00E-06,  avg # of iterations =  2.0

     negative rho (up, down):  1.758E-05 0.000E+00

     total cpu time spent up to now is      220.6 secs

     total energy              =      -2.33048203 Ry
     Harris-Foulkes estimate   =      -2.33048801 Ry
     estimated scf accuracy    <       0.00001270 Ry

     iteration #  2     ecut=    30.00 Ry     beta=0.70
     Davidson diagonalization with overlap
     ethr =  6.35E-07,  avg # of iterations =  1.0

     negative rho (up, down):  4.689E-06 0.000E+00

     total cpu time spent up to now is      236.9 secs

     total energy              =      -2.33048316 Ry
     Harris-Foulkes estimate   =      -2.33048314 Ry
     estimated scf accuracy    <       0.00000015 Ry

     iteration #  3     ecut=    30.00 Ry     beta=0.70
     Davidson diagonalization with overlap
     ethr =  7.43E-09,  avg # of iterations =  2.0

     negative rho (up, down):  2.733E-06 0.000E+00

     total cpu time spent up to now is      259.8 secs

     End of self-consistent calculation

     Number of k-points >= 100: set verbosity='high' to print the bands.

     highest occupied level (ev):   -10.2535

!    total energy              =      -2.33048323 Ry
     Harris-Foulkes estimate   =      -2.33048319 Ry
     estimated scf accuracy    <          6.4E-09 Ry

     The total energy is the sum of the following terms:

     one-electron contribution =      -3.40685226 Ry
     hartree contribution      =       1.82942644 Ry
     xc contribution           =      -1.37009673 Ry
     ewald contribution        =       0.61703932 Ry

     convergence has been achieved in   3 iterations

     Forces acting on atoms (Ry/au):

     atom    1 type  1   force =     0.00022943    0.00000000    0.00000000
     atom    2 type  1   force =    -0.00022943    0.00000000    0.00000000

     Total force =     0.000324     Total SCF correction =     0.000014


     entering subroutine stress ...

          total   stress  (Ry/bohr**3)                   (kbar)     P=   -0.20
  -0.00000155   0.00000000   0.00000000         -0.23      0.00      0.00
   0.00000000  -0.00000125   0.00000000          0.00     -0.18      0.00
   0.00000000   0.00000000  -0.00000125          0.00      0.00     -0.18


     bfgs converged in   3 scf cycles and   2 bfgs steps
     (criteria: energy <  1.0E-04, force <  1.0E-03)

     End of BFGS Geometry Optimization

     Final energy   =      -2.3304832286 Ry
Begin final coordinates

ATOMIC_POSITIONS (crystal)
H       -0.000652927   0.000000000   0.000000000
H        0.093401756   0.000000000   0.000000000
End final coordinates



     Writing output data file H2_gas.save

     init_run     :      7.71s CPU     12.23s WALL (       1 calls)
     electrons    :    148.28s CPU    238.67s WALL (       3 calls)
     update_pot   :      1.27s CPU      1.41s WALL (       2 calls)
     forces       :      0.92s CPU      2.63s WALL (       3 calls)
     stress       :      2.03s CPU      5.49s WALL (       3 calls)

     Called by init_run:
     wfcinit      :      6.40s CPU     10.83s WALL (       1 calls)
     potinit      :      0.57s CPU      0.60s WALL (       1 calls)

     Called by electrons:
     c_bands      :    121.24s CPU    193.90s WALL (      11 calls)
     sum_band     :     21.18s CPU     38.33s WALL (      11 calls)
     v_of_rho     :      5.79s CPU      6.24s WALL (      14 calls)
     newd         :      0.54s CPU      0.57s WALL (      14 calls)
     mix_rho      :      0.38s CPU      0.43s WALL (      11 calls)

     Called by c_bands:
     init_us_2    :      3.06s CPU      7.86s WALL (   19053 calls)
     cegterg      :    119.12s CPU    188.87s WALL (    7227 calls)

     Called by *egterg:
     h_psi        :    119.98s CPU    190.06s WALL (   21024 calls)
     s_psi        :      0.86s CPU      1.53s WALL (   21024 calls)
     g_psi        :      0.37s CPU      0.63s WALL (   13140 calls)
     cdiaghg      :      0.61s CPU      0.77s WALL (   19053 calls)

     Called by h_psi:
     add_vuspsi   :      1.11s CPU      1.71s WALL (   21024 calls)

     General routines
     calbec       :      2.15s CPU      3.31s WALL (   32193 calls)
     fft          :      4.76s CPU      5.24s WALL (     238 calls)
     ffts         :      0.08s CPU      0.12s WALL (      25 calls)
     fftw         :    121.34s CPU    191.23s WALL (   50589 calls)
     interpolate  :      0.61s CPU      0.74s WALL (      25 calls)
     davcio       :      0.00s CPU      0.05s WALL (     657 calls)

     Parallel routines
     fft_scatter  :      2.92s CPU      7.28s WALL (   50852 calls)

     PWSCF        :  2m42.98s CPU     4m23.58s WALL


   This run was terminated on:  20:49:47  31May2020            

=------------------------------------------------------------------------------=
   JOB DONE.
=------------------------------------------------------------------------------=
