
     Program PWSCF v.6.4.1 starts on  1Jun2020 at 20: 9:27 

     This program is part of the open-source Quantum ESPRESSO suite
     for quantum simulation of materials; please cite
         "P. Giannozzi et al., J. Phys.:Condens. Matter 21 395502 (2009);
         "P. Giannozzi et al., J. Phys.:Condens. Matter 29 465901 (2017);
          URL http://www.quantum-espresso.org", 
     in publications or presentations arising from this work. More details at
     http://www.quantum-espresso.org/quote

     Parallel version (MPI), running on     1 processors

     MPI processes distributed on     1 nodes
     Reading input from H2_18_22.676_50.pw.in

     Current dimensions of program PWSCF are:
     Max number of different atomic species (ntypx) = 10
     Max number of k-points (npk) =  40000
     Max angular momentum in pseudopotentials (lmaxx) =  3
               file H.pbe-rrkjus.UPF: wavefunction(s)  1S renormalized

     Subspace diagonalization in iterative solution of the eigenvalue problem:
     a serial algorithm will be used


     G-vector sticks info
     --------------------
     sticks:   dense  smooth     PW     G-vecs:    dense   smooth      PW
     Sum       17707    7087   1891              1906679   481801   66563



     bravais-lattice index     =            4
     lattice parameter (alat)  =      22.6760  a.u.
     unit-cell volume          =   10097.8747 (a.u.)^3
     number of atoms/cell      =            2
     number of atomic types    =            1
     number of electrons       =         2.00
     number of Kohn-Sham states=            1
     kinetic-energy cutoff     =      50.0000  Ry
     charge density cutoff     =     500.0000  Ry
     convergence threshold     =      1.0E-06
     mixing beta               =       0.7000
     number of iterations used =            8  plain     mixing
     Exchange-correlation      =  SLA  PW   PBE  PBE ( 1  4  3  4 0 0)
     nstep                     =           50


     celldm(1)=  22.676000  celldm(2)=   0.000000  celldm(3)=   1.000000
     celldm(4)=   0.000000  celldm(5)=   0.000000  celldm(6)=   0.000000

     crystal axes: (cart. coord. in units of alat)
               a(1) = (   1.000000   0.000000   0.000000 )  
               a(2) = (  -0.500000   0.866025   0.000000 )  
               a(3) = (   0.000000   0.000000   1.000000 )  

     reciprocal axes: (cart. coord. in units 2 pi/alat)
               b(1) = (  1.000000  0.577350 -0.000000 )  
               b(2) = (  0.000000  1.154701  0.000000 )  
               b(3) = (  0.000000 -0.000000  1.000000 )  


     PseudoPot. # 1 for H  read from file:
     ./H.pbe-rrkjus.UPF
     MD5 check sum: 0433647300470310da31d564c103eed6
     Pseudo is Ultrasoft, Zval =  1.0
     Generated by new atomic code, or converted to UPF format
     Using radial grid of 1061 points,  2 beta functions with: 
                l(1) =   0
                l(2) =   0
     Q(r) pseudized with 0 coefficients 


     atomic species   valence    mass     pseudopotential
        H              1.00     1.00794     H ( 1.00)

      4 Sym. Ops. (no inversion) found



   Cartesian axes

     site n.     atom                  positions (alat units)
         1           H   tau(   1) = (   0.0000000   0.0000000   0.0000000  )
         2           H   tau(   2) = (   0.0742010   0.0000000   0.0000000  )

     number of k points=   910

     Number of k-points >= 100: set verbosity='high' to print them.

     Dense  grid:  1906679 G-vectors     FFT dimensions: ( 162, 162, 162)

     Smooth grid:   481801 G-vectors     FFT dimensions: ( 108, 108, 108)

     Estimated max dynamical RAM per process >       2.17 GB

     Initial potential from superposition of free atoms

     starting charge    1.80759, renormalised to    2.00000

     negative rho (up, down):  1.135E-03 0.000E+00
     Starting wfcs are    2 randomized atomic wfcs

     total cpu time spent up to now is      308.7 secs

     Self-consistent Calculation

     iteration #  1     ecut=    50.00 Ry     beta= 0.70
     Davidson diagonalization with overlap
     ethr =  1.00E-02,  avg # of iterations =  2.0

     negative rho (up, down):  3.299E-04 0.000E+00

     total cpu time spent up to now is      800.9 secs

     total energy              =      -2.28070452 Ry
     Harris-Foulkes estimate   =      -2.62595320 Ry
     estimated scf accuracy    <       0.53792598 Ry

     iteration #  2     ecut=    50.00 Ry     beta= 0.70
     Davidson diagonalization with overlap
     ethr =  1.00E-02,  avg # of iterations =  2.0

     negative rho (up, down):  1.016E-04 0.000E+00

     total cpu time spent up to now is     1292.7 secs

     total energy              =      -2.31061203 Ry
     Harris-Foulkes estimate   =      -2.31727445 Ry
     estimated scf accuracy    <       0.01427991 Ry

     iteration #  3     ecut=    50.00 Ry     beta= 0.70
     Davidson diagonalization with overlap
     ethr =  7.14E-04,  avg # of iterations =  2.0

     negative rho (up, down):  4.592E-05 0.000E+00

     total cpu time spent up to now is     1782.4 secs

     total energy              =      -2.31260681 Ry
     Harris-Foulkes estimate   =      -2.31236294 Ry
     estimated scf accuracy    <       0.00065408 Ry

     iteration #  4     ecut=    50.00 Ry     beta= 0.70
     Davidson diagonalization with overlap
     ethr =  3.27E-05,  avg # of iterations =  1.0

     negative rho (up, down):  7.071E-05 0.000E+00

     total cpu time spent up to now is     2138.3 secs

     total energy              =      -2.31262274 Ry
     Harris-Foulkes estimate   =      -2.31263803 Ry
     estimated scf accuracy    <       0.00003269 Ry

     iteration #  5     ecut=    50.00 Ry     beta= 0.70
     Davidson diagonalization with overlap
     ethr =  1.63E-06,  avg # of iterations =  2.0

     negative rho (up, down):  1.810E-05 0.000E+00

     total cpu time spent up to now is     2627.5 secs

     End of self-consistent calculation

     Number of k-points >= 100: set verbosity='high' to print the bands.

     highest occupied level (ev):    -9.7047

!    total energy              =      -2.31262715 Ry
     Harris-Foulkes estimate   =      -2.31262735 Ry
     estimated scf accuracy    <       0.00000024 Ry

     The total energy is the sum of the following terms:

     one-electron contribution =      -3.59542818 Ry
     hartree contribution      =       1.91378710 Ry
     xc contribution           =      -1.29248604 Ry
     ewald contribution        =       0.66149996 Ry

     convergence has been achieved in   5 iterations

     Forces acting on atoms (cartesian axes, Ry/au):

     atom    1 type  1   force =     0.12327720    0.00000000    0.00000000
     atom    2 type  1   force =    -0.12327720    0.00000000    0.00000000

     Total force =     0.174340     Total SCF correction =     0.000110


     Computing stress (Cartesian axis) and pressure

          total   stress  (Ry/bohr**3)                   (kbar)     P=   -1.01
  -0.00002056   0.00000000   0.00000000         -3.02      0.00      0.00
   0.00000000  -0.00000002   0.00000000          0.00     -0.00      0.00
   0.00000000   0.00000000  -0.00000002          0.00      0.00     -0.00


     BFGS Geometry Optimization

     number of scf cycles    =   1
     number of bfgs steps    =   0

     energy   new            =      -2.3126271532 Ry

     new trust radius        =       0.1232772034 bohr
     new conv_thr            =       0.0000010000 Ry


ATOMIC_POSITIONS (crystal)
H        0.005436462   0.000000000   0.000000000
H        0.068764565   0.000000000   0.000000000



     Writing output data file H2_gas.save/
     NEW-OLD atomic charge density approx. for the potential

     negative rho (up, down):  5.690E-03 0.000E+00

     total cpu time spent up to now is     2678.1 secs

     Self-consistent Calculation

     iteration #  1     ecut=    50.00 Ry     beta= 0.70
     Davidson diagonalization with overlap
     ethr =  1.00E-06,  avg # of iterations =  4.0

     negative rho (up, down):  1.679E-03 0.000E+00

     total cpu time spent up to now is     3442.3 secs

     total energy              =      -2.33049915 Ry
     Harris-Foulkes estimate   =      -2.33394720 Ry
     estimated scf accuracy    <       0.00753738 Ry

     iteration #  2     ecut=    50.00 Ry     beta= 0.70
     Davidson diagonalization with overlap
     ethr =  3.77E-04,  avg # of iterations =  1.0

     negative rho (up, down):  4.349E-04 0.000E+00

     total cpu time spent up to now is     3798.1 secs

     total energy              =      -2.33109871 Ry
     Harris-Foulkes estimate   =      -2.33111298 Ry
     estimated scf accuracy    <       0.00008712 Ry

     iteration #  3     ecut=    50.00 Ry     beta= 0.70
     Davidson diagonalization with overlap
     ethr =  4.36E-06,  avg # of iterations =  2.0

     negative rho (up, down):  9.965E-05 0.000E+00

     total cpu time spent up to now is     4287.6 secs

     total energy              =      -2.33111415 Ry
     Harris-Foulkes estimate   =      -2.33111394 Ry
     estimated scf accuracy    <       0.00000301 Ry

     iteration #  4     ecut=    50.00 Ry     beta= 0.70
     Davidson diagonalization with overlap
     ethr =  1.50E-07,  avg # of iterations =  1.0

     negative rho (up, down):  2.242E-05 0.000E+00

     total cpu time spent up to now is     4643.6 secs

     End of self-consistent calculation

     Number of k-points >= 100: set verbosity='high' to print the bands.

     highest occupied level (ev):   -10.2787

!    total energy              =      -2.33111425 Ry
     Harris-Foulkes estimate   =      -2.33111422 Ry
     estimated scf accuracy    <       0.00000003 Ry

     The total energy is the sum of the following terms:

     one-electron contribution =      -3.90414390 Ry
     hartree contribution      =       2.07378299 Ry
     xc contribution           =      -1.36598409 Ry
     ewald contribution        =       0.86523075 Ry

     convergence has been achieved in   4 iterations

     Forces acting on atoms (cartesian axes, Ry/au):

     atom    1 type  1   force =     0.01045878    0.00000000    0.00000000
     atom    2 type  1   force =    -0.01045878    0.00000000    0.00000000

     Total force =     0.014791     Total SCF correction =     0.000029


     Computing stress (Cartesian axis) and pressure

          total   stress  (Ry/bohr**3)                   (kbar)     P=   -0.07
  -0.00000148   0.00000000   0.00000000         -0.22      0.00      0.00
   0.00000000   0.00000000   0.00000000          0.00      0.00      0.00
   0.00000000   0.00000000   0.00000000          0.00      0.00      0.00


     number of scf cycles    =   2
     number of bfgs steps    =   1

     energy   old            =      -2.3126271532 Ry
     energy   new            =      -2.3311142450 Ry

     CASE: energy  _new < energy  _old

     new trust radius        =       0.0114283568 bohr
     new conv_thr            =       0.0000001046 Ry


ATOMIC_POSITIONS (crystal)
H        0.005940446   0.000000000   0.000000000
H        0.068260580   0.000000000   0.000000000



     Writing output data file H2_gas.save/
     NEW-OLD atomic charge density approx. for the potential

     negative rho (up, down):  5.361E-04 0.000E+00

     total cpu time spent up to now is     4693.8 secs

     Self-consistent Calculation

     iteration #  1     ecut=    50.00 Ry     beta= 0.70
     Davidson diagonalization with overlap
     ethr =  1.00E-06,  avg # of iterations =  3.0

     negative rho (up, down):  1.611E-04 0.000E+00

     total cpu time spent up to now is     5317.0 secs

     total energy              =      -2.33116148 Ry
     Harris-Foulkes estimate   =      -2.33119812 Ry
     estimated scf accuracy    <       0.00007638 Ry

     iteration #  2     ecut=    50.00 Ry     beta= 0.70
     Davidson diagonalization with overlap
     ethr =  3.82E-06,  avg # of iterations =  1.0

     negative rho (up, down):  5.311E-05 0.000E+00

     total cpu time spent up to now is     5673.5 secs

     total energy              =      -2.33116817 Ry
     Harris-Foulkes estimate   =      -2.33116831 Ry
     estimated scf accuracy    <       0.00000083 Ry

     iteration #  3     ecut=    50.00 Ry     beta= 0.70
     Davidson diagonalization with overlap
     ethr =  4.13E-08,  avg # of iterations =  2.0

     negative rho (up, down):  2.275E-05 0.000E+00

     total cpu time spent up to now is     6160.6 secs

     End of self-consistent calculation

     Number of k-points >= 100: set verbosity='high' to print the bands.

     highest occupied level (ev):   -10.3338

!    total energy              =      -2.33116834 Ry
     Harris-Foulkes estimate   =      -2.33116831 Ry
     estimated scf accuracy    <       0.00000004 Ry

     The total energy is the sum of the following terms:

     one-electron contribution =      -3.93527546 Ry
     hartree contribution      =       2.08983280 Ry
     xc contribution           =      -1.37345286 Ry
     ewald contribution        =       0.88772717 Ry

     convergence has been achieved in   3 iterations

     Forces acting on atoms (cartesian axes, Ry/au):

     atom    1 type  1   force =    -0.00584793    0.00000000    0.00000000
     atom    2 type  1   force =     0.00584793    0.00000000    0.00000000

     Total force =     0.008270     Total SCF correction =     0.000053


     Computing stress (Cartesian axis) and pressure

          total   stress  (Ry/bohr**3)                   (kbar)     P=    0.04
   0.00000082   0.00000000   0.00000000          0.12      0.00      0.00
   0.00000000  -0.00000000   0.00000000          0.00     -0.00      0.00
   0.00000000   0.00000000  -0.00000000          0.00      0.00     -0.00


     number of scf cycles    =   3
     number of bfgs steps    =   2

     energy   old            =      -2.3311142450 Ry
     energy   new            =      -2.3311683447 Ry

     CASE: energy  _new < energy  _old

     new trust radius        =       0.0040984507 bohr
     new conv_thr            =       0.0000000100 Ry


ATOMIC_POSITIONS (crystal)
H        0.005759707   0.000000000   0.000000000
H        0.068441319   0.000000000   0.000000000



     Writing output data file H2_gas.save/
     NEW-OLD atomic charge density approx. for the potential

     negative rho (up, down):  1.455E-04 0.000E+00

     total cpu time spent up to now is     6211.0 secs

     Self-consistent Calculation

     iteration #  1     ecut=    50.00 Ry     beta= 0.70
     Davidson diagonalization with overlap
     ethr =  1.00E-06,  avg # of iterations =  2.0

     negative rho (up, down):  5.165E-05 0.000E+00

     total cpu time spent up to now is     6702.5 secs

     total energy              =      -2.33119096 Ry
     Harris-Foulkes estimate   =      -2.33119528 Ry
     estimated scf accuracy    <       0.00000979 Ry

     iteration #  2     ecut=    50.00 Ry     beta= 0.70
     Davidson diagonalization with overlap
     ethr =  4.89E-07,  avg # of iterations =  1.0

     negative rho (up, down):  2.744E-05 0.000E+00

     total cpu time spent up to now is     7058.5 secs

     total energy              =      -2.33119184 Ry
     Harris-Foulkes estimate   =      -2.33119180 Ry
     estimated scf accuracy    <       0.00000012 Ry

     iteration #  3     ecut=    50.00 Ry     beta= 0.70
     Davidson diagonalization with overlap
     ethr =  5.92E-09,  avg # of iterations =  2.0

     negative rho (up, down):  2.263E-05 0.000E+00

     total cpu time spent up to now is     7548.4 secs

     End of self-consistent calculation

     Number of k-points >= 100: set verbosity='high' to print the bands.

     highest occupied level (ev):   -10.3146

!    total energy              =      -2.33119186 Ry
     Harris-Foulkes estimate   =      -2.33119187 Ry
     estimated scf accuracy    <          5.1E-09 Ry

     The total energy is the sum of the following terms:

     one-electron contribution =      -3.92406729 Ry
     hartree contribution      =       2.08406827 Ry
     xc contribution           =      -1.37076894 Ry
     ewald contribution        =       0.87957610 Ry

     convergence has been achieved in   3 iterations

     Forces acting on atoms (cartesian axes, Ry/au):

     atom    1 type  1   force =     0.00014517    0.00000000    0.00000000
     atom    2 type  1   force =    -0.00014517    0.00000000    0.00000000

     Total force =     0.000205     Total SCF correction =     0.000020


     Computing stress (Cartesian axis) and pressure

          total   stress  (Ry/bohr**3)                   (kbar)     P=   -0.00
  -0.00000002   0.00000000   0.00000000         -0.00      0.00      0.00
   0.00000000   0.00000000  -0.00000000          0.00      0.00     -0.00
   0.00000000  -0.00000000   0.00000000          0.00     -0.00      0.00


     bfgs converged in   4 scf cycles and   3 bfgs steps
     (criteria: energy <  1.0E-04 Ry, force <  1.0E-03 Ry/Bohr)

     End of BFGS Geometry Optimization

     Final energy   =      -2.3311918568 Ry
Begin final coordinates

ATOMIC_POSITIONS (crystal)
H        0.005759707   0.000000000   0.000000000
H        0.068441319   0.000000000   0.000000000
End final coordinates



     Writing output data file H2_gas.save/

     init_run     :    299.45s CPU    308.63s WALL (       1 calls)
     electrons    :   6709.50s CPU   7089.94s WALL (       4 calls)
     update_pot   :     16.72s CPU     17.22s WALL (       3 calls)
     forces       :     50.42s CPU     69.53s WALL (       4 calls)
     stress       :     83.12s CPU    100.07s WALL (       4 calls)

     Called by init_run:
     wfcinit      :    276.72s CPU    284.99s WALL (       1 calls)
     potinit      :      5.64s CPU      6.05s WALL (       1 calls)
     hinit0       :     13.77s CPU     13.96s WALL (       1 calls)

     Called by electrons:
     c_bands      :   5530.68s CPU   5856.37s WALL (      15 calls)
     sum_band     :   1091.42s CPU   1140.80s WALL (      15 calls)
     v_of_rho     :     76.03s CPU     80.31s WALL (      19 calls)
     newd         :     11.18s CPU     12.16s WALL (      19 calls)
     mix_rho      :      9.03s CPU      9.20s WALL (      15 calls)

     Called by c_bands:
     init_us_2    :    176.98s CPU    218.31s WALL (   35490 calls)
     cegterg      :   5411.03s CPU   5704.96s WALL (   13650 calls)

     Called by sum_band:
     sum_band:bec :      0.34s CPU      0.48s WALL (   13650 calls)
     addusdens    :      4.99s CPU      6.52s WALL (      15 calls)

     Called by *egterg:
     h_psi        :   5534.13s CPU   5720.80s WALL (   40040 calls)
     s_psi        :     29.19s CPU     57.37s WALL (   40040 calls)
     g_psi        :     12.81s CPU     24.13s WALL (   25480 calls)
     cdiaghg      :      0.91s CPU      1.72s WALL (   36400 calls)

     Called by h_psi:
     h_psi:pot    :   5527.22s CPU   5707.57s WALL (   40040 calls)
     h_psi:calbec :     35.71s CPU     52.79s WALL (   40040 calls)
     vloc_psi     :   5462.38s CPU   5600.82s WALL (   40040 calls)
     add_vuspsi   :     26.59s CPU     50.36s WALL (   40040 calls)

     General routines
     calbec       :     61.70s CPU     89.46s WALL (   71890 calls)
     fft          :     80.06s CPU     80.32s WALL (     274 calls)
     ffts         :      3.21s CPU      3.23s WALL (      34 calls)
     fftw         :   5571.78s CPU   5637.01s WALL (   95550 calls)
     interpolate  :      8.33s CPU      8.46s WALL (      19 calls)

     Parallel routines

     PWSCF        :      1h59m CPU      2h 7m WALL


   This run was terminated on:  22:16:38   1Jun2020            

=------------------------------------------------------------------------------=
   JOB DONE.
=------------------------------------------------------------------------------=
