
     Program PWSCF v.6.4.1 starts on  1Jun2020 at 19:22:33 

     This program is part of the open-source Quantum ESPRESSO suite
     for quantum simulation of materials; please cite
         "P. Giannozzi et al., J. Phys.:Condens. Matter 21 395502 (2009);
         "P. Giannozzi et al., J. Phys.:Condens. Matter 29 465901 (2017);
          URL http://www.quantum-espresso.org", 
     in publications or presentations arising from this work. More details at
     http://www.quantum-espresso.org/quote

     Parallel version (MPI), running on     1 processors

     MPI processes distributed on     1 nodes
     Reading input from H2_18_18.897_50.pw.in

     Current dimensions of program PWSCF are:
     Max number of different atomic species (ntypx) = 10
     Max number of k-points (npk) =  40000
     Max angular momentum in pseudopotentials (lmaxx) =  3
               file H.pbe-rrkjus.UPF: wavefunction(s)  1S renormalized

     Subspace diagonalization in iterative solution of the eigenvalue problem:
     a serial algorithm will be used


     G-vector sticks info
     --------------------
     sticks:   dense  smooth     PW     G-vecs:    dense   smooth      PW
     Sum       12319    4927   1333              1103721   278959   39117



     bravais-lattice index     =            4
     lattice parameter (alat)  =      18.8970  a.u.
     unit-cell volume          =    5843.9867 (a.u.)^3
     number of atoms/cell      =            2
     number of atomic types    =            1
     number of electrons       =         2.00
     number of Kohn-Sham states=            1
     kinetic-energy cutoff     =      50.0000  Ry
     charge density cutoff     =     500.0000  Ry
     convergence threshold     =      1.0E-06
     mixing beta               =       0.7000
     number of iterations used =            8  plain     mixing
     Exchange-correlation      =  SLA  PW   PBE  PBE ( 1  4  3  4 0 0)
     nstep                     =           50


     celldm(1)=  18.897000  celldm(2)=   0.000000  celldm(3)=   1.000000
     celldm(4)=   0.000000  celldm(5)=   0.000000  celldm(6)=   0.000000

     crystal axes: (cart. coord. in units of alat)
               a(1) = (   1.000000   0.000000   0.000000 )  
               a(2) = (  -0.500000   0.866025   0.000000 )  
               a(3) = (   0.000000   0.000000   1.000000 )  

     reciprocal axes: (cart. coord. in units 2 pi/alat)
               b(1) = (  1.000000  0.577350 -0.000000 )  
               b(2) = (  0.000000  1.154701  0.000000 )  
               b(3) = (  0.000000 -0.000000  1.000000 )  


     PseudoPot. # 1 for H  read from file:
     ./H.pbe-rrkjus.UPF
     MD5 check sum: 0433647300470310da31d564c103eed6
     Pseudo is Ultrasoft, Zval =  1.0
     Generated by new atomic code, or converted to UPF format
     Using radial grid of 1061 points,  2 beta functions with: 
                l(1) =   0
                l(2) =   0
     Q(r) pseudized with 0 coefficients 


     atomic species   valence    mass     pseudopotential
        H              1.00     1.00794     H ( 1.00)

      4 Sym. Ops. (no inversion) found



   Cartesian axes

     site n.     atom                  positions (alat units)
         1           H   tau(   1) = (   0.0000000   0.0000000   0.0000000  )
         2           H   tau(   2) = (   0.0742010   0.0000000   0.0000000  )

     number of k points=   910

     Number of k-points >= 100: set verbosity='high' to print them.

     Dense  grid:  1103721 G-vectors     FFT dimensions: ( 135, 135, 135)

     Smooth grid:   278959 G-vectors     FFT dimensions: (  90,  90,  90)

     Estimated max dynamical RAM per process >       1.26 GB

     Initial potential from superposition of free atoms

     starting charge    1.80759, renormalised to    2.00000

     negative rho (up, down):  5.103E-04 0.000E+00
     Starting wfcs are    2 randomized atomic wfcs

     total cpu time spent up to now is      156.0 secs

     Self-consistent Calculation

     iteration #  1     ecut=    50.00 Ry     beta= 0.70
     Davidson diagonalization with overlap
     ethr =  1.00E-02,  avg # of iterations =  2.0

     negative rho (up, down):  1.488E-04 0.000E+00

     total cpu time spent up to now is      403.5 secs

     total energy              =      -2.29339370 Ry
     Harris-Foulkes estimate   =      -2.70947570 Ry
     estimated scf accuracy    <       0.64286310 Ry

     iteration #  2     ecut=    50.00 Ry     beta= 0.70
     Davidson diagonalization with overlap
     ethr =  1.00E-02,  avg # of iterations =  2.0

     negative rho (up, down):  4.695E-05 0.000E+00

     total cpu time spent up to now is      650.8 secs

     total energy              =      -2.32873742 Ry
     Harris-Foulkes estimate   =      -2.33719710 Ry
     estimated scf accuracy    <       0.01667841 Ry

     iteration #  3     ecut=    50.00 Ry     beta= 0.70
     Davidson diagonalization with overlap
     ethr =  8.34E-04,  avg # of iterations =  2.0

     negative rho (up, down):  2.301E-05 0.000E+00

     total cpu time spent up to now is      897.1 secs

     total energy              =      -2.33103102 Ry
     Harris-Foulkes estimate   =      -2.33080834 Ry
     estimated scf accuracy    <       0.00077112 Ry

     iteration #  4     ecut=    50.00 Ry     beta= 0.70
     Davidson diagonalization with overlap
     ethr =  3.86E-05,  avg # of iterations =  1.0

     negative rho (up, down):  5.707E-05 0.000E+00

     total cpu time spent up to now is     1075.4 secs

     total energy              =      -2.33105139 Ry
     Harris-Foulkes estimate   =      -2.33107409 Ry
     estimated scf accuracy    <       0.00004628 Ry

     iteration #  5     ecut=    50.00 Ry     beta= 0.70
     Davidson diagonalization with overlap
     ethr =  2.31E-06,  avg # of iterations =  2.0

     negative rho (up, down):  1.229E-05 0.000E+00

     total cpu time spent up to now is     1320.2 secs

     End of self-consistent calculation

     Number of k-points >= 100: set verbosity='high' to print the bands.

     highest occupied level (ev):   -10.3402

!    total energy              =      -2.33105803 Ry
     Harris-Foulkes estimate   =      -2.33105831 Ry
     estimated scf accuracy    <       0.00000034 Ry

     The total energy is the sum of the following terms:

     one-electron contribution =      -3.74280350 Ry
     hartree contribution      =       1.99492442 Ry
     xc contribution           =      -1.37696491 Ry
     ewald contribution        =       0.79378595 Ry

     convergence has been achieved in   5 iterations

     Forces acting on atoms (cartesian axes, Ry/au):

     atom    1 type  1   force =    -0.01431950    0.00000000    0.00000000
     atom    2 type  1   force =     0.01431950    0.00000000    0.00000000

     Total force =     0.020251     Total SCF correction =     0.000121


     Computing stress (Cartesian axis) and pressure

          total   stress  (Ry/bohr**3)                   (kbar)     P=    0.16
   0.00000339   0.00000000   0.00000000          0.50      0.00      0.00
   0.00000000  -0.00000005   0.00000000          0.00     -0.01      0.00
   0.00000000   0.00000000  -0.00000005          0.00      0.00     -0.01


     BFGS Geometry Optimization

     number of scf cycles    =   1
     number of bfgs steps    =   0

     energy   new            =      -2.3310580345 Ry

     new trust radius        =       0.0143195003 bohr
     new conv_thr            =       0.0000010000 Ry


ATOMIC_POSITIONS (crystal)
H       -0.000757766   0.000000000   0.000000000
H        0.074958792   0.000000000   0.000000000



     Writing output data file H2_gas.save/
     NEW-OLD atomic charge density approx. for the potential

     negative rho (up, down):  4.112E-04 0.000E+00

     total cpu time spent up to now is     1348.4 secs

     Self-consistent Calculation

     iteration #  1     ecut=    50.00 Ry     beta= 0.70
     Davidson diagonalization with overlap
     ethr =  1.00E-06,  avg # of iterations =  3.0

     negative rho (up, down):  1.186E-04 0.000E+00

     total cpu time spent up to now is     1660.6 secs

     total energy              =      -2.33114756 Ry
     Harris-Foulkes estimate   =      -2.33120121 Ry
     estimated scf accuracy    <       0.00011780 Ry

     iteration #  2     ecut=    50.00 Ry     beta= 0.70
     Davidson diagonalization with overlap
     ethr =  5.89E-06,  avg # of iterations =  1.0

     negative rho (up, down):  3.567E-05 0.000E+00

     total cpu time spent up to now is     1839.7 secs

     total energy              =      -2.33115848 Ry
     Harris-Foulkes estimate   =      -2.33115822 Ry
     estimated scf accuracy    <       0.00000130 Ry

     iteration #  3     ecut=    50.00 Ry     beta= 0.70
     Davidson diagonalization with overlap
     ethr =  6.48E-08,  avg # of iterations =  2.0

     negative rho (up, down):  1.186E-05 0.000E+00

     total cpu time spent up to now is     2083.3 secs

     End of self-consistent calculation

     Number of k-points >= 100: set verbosity='high' to print the bands.

     highest occupied level (ev):   -10.2739

!    total energy              =      -2.33115870 Ry
     Harris-Foulkes estimate   =      -2.33115871 Ry
     estimated scf accuracy    <       0.00000006 Ry

     The total energy is the sum of the following terms:

     one-electron contribution =      -3.70379097 Ry
     hartree contribution      =       1.97500909 Ry
     xc contribution           =      -1.36767707 Ry
     ewald contribution        =       0.76530025 Ry

     convergence has been achieved in   3 iterations

     Forces acting on atoms (cartesian axes, Ry/au):

     atom    1 type  1   force =     0.00687125    0.00000000    0.00000000
     atom    2 type  1   force =    -0.00687125    0.00000000    0.00000000

     Total force =     0.009717     Total SCF correction =     0.000058


     Computing stress (Cartesian axis) and pressure

          total   stress  (Ry/bohr**3)                   (kbar)     P=   -0.08
  -0.00000167   0.00000000   0.00000000         -0.25      0.00      0.00
   0.00000000   0.00000001   0.00000000          0.00      0.00      0.00
   0.00000000   0.00000000   0.00000001          0.00      0.00      0.00


     number of scf cycles    =   2
     number of bfgs steps    =   1

     energy   old            =      -2.3310580345 Ry
     energy   new            =      -2.3311586978 Ry

     CASE: energy  _new < energy  _old

     new trust radius        =       0.0046431995 bohr
     new conv_thr            =       0.0000000101 Ry


ATOMIC_POSITIONS (crystal)
H       -0.000512055   0.000000000   0.000000000
H        0.074713081   0.000000000   0.000000000



     Writing output data file H2_gas.save/
     NEW-OLD atomic charge density approx. for the potential

     negative rho (up, down):  1.816E-04 0.000E+00

     total cpu time spent up to now is     2110.9 secs

     Self-consistent Calculation

     iteration #  1     ecut=    50.00 Ry     beta= 0.70
     Davidson diagonalization with overlap
     ethr =  1.00E-06,  avg # of iterations =  2.0

     negative rho (up, down):  5.554E-05 0.000E+00

     total cpu time spent up to now is     2355.5 secs

     total energy              =      -2.33119043 Ry
     Harris-Foulkes estimate   =      -2.33119652 Ry
     estimated scf accuracy    <       0.00001241 Ry

     iteration #  2     ecut=    50.00 Ry     beta= 0.70
     Davidson diagonalization with overlap
     ethr =  6.21E-07,  avg # of iterations =  1.0

     negative rho (up, down):  1.995E-05 0.000E+00

     total cpu time spent up to now is     2534.7 secs

     total energy              =      -2.33119142 Ry
     Harris-Foulkes estimate   =      -2.33119148 Ry
     estimated scf accuracy    <       0.00000015 Ry

     iteration #  3     ecut=    50.00 Ry     beta= 0.70
     Davidson diagonalization with overlap
     ethr =  7.54E-09,  avg # of iterations =  2.0

     negative rho (up, down):  1.200E-05 0.000E+00

     total cpu time spent up to now is     2779.4 secs

     End of self-consistent calculation

     Number of k-points >= 100: set verbosity='high' to print the bands.

     highest occupied level (ev):   -10.2954

!    total energy              =      -2.33119147 Ry
     Harris-Foulkes estimate   =      -2.33119146 Ry
     estimated scf accuracy    <          6.4E-09 Ry

     The total energy is the sum of the following terms:

     one-electron contribution =      -3.71639214 Ry
     hartree contribution      =       1.98148747 Ry
     xc contribution           =      -1.37069757 Ry
     ewald contribution        =       0.77441077 Ry

     convergence has been achieved in   3 iterations

     Forces acting on atoms (cartesian axes, Ry/au):

     atom    1 type  1   force =     0.00023484    0.00000000    0.00000000
     atom    2 type  1   force =    -0.00023484   -0.00000000    0.00000000

     Total force =     0.000332     Total SCF correction =     0.000023


     Computing stress (Cartesian axis) and pressure

          total   stress  (Ry/bohr**3)                   (kbar)     P=   -0.00
  -0.00000006  -0.00000000   0.00000000         -0.01     -0.00      0.00
  -0.00000000  -0.00000001  -0.00000000         -0.00     -0.00     -0.00
   0.00000000  -0.00000000  -0.00000001          0.00     -0.00     -0.00


     bfgs converged in   3 scf cycles and   2 bfgs steps
     (criteria: energy <  1.0E-04 Ry, force <  1.0E-03 Ry/Bohr)

     End of BFGS Geometry Optimization

     Final energy   =      -2.3311914680 Ry
Begin final coordinates

ATOMIC_POSITIONS (crystal)
H       -0.000512055   0.000000000   0.000000000
H        0.074713081   0.000000000   0.000000000
End final coordinates



     Writing output data file H2_gas.save/

     init_run     :    144.67s CPU    155.86s WALL (       1 calls)
     electrons    :   2326.79s CPU   2568.27s WALL (       3 calls)
     update_pot   :      5.74s CPU      5.95s WALL (       2 calls)
     forces       :     15.61s CPU     28.50s WALL (       3 calls)
     stress       :     31.97s CPU     42.36s WALL (       3 calls)

     Called by init_run:
     wfcinit      :    132.07s CPU    142.70s WALL (       1 calls)
     potinit      :      3.05s CPU      3.29s WALL (       1 calls)
     hinit0       :      7.73s CPU      7.85s WALL (       1 calls)

     Called by electrons:
     c_bands      :   1890.49s CPU   2098.50s WALL (      11 calls)
     sum_band     :    403.60s CPU    434.94s WALL (      11 calls)
     v_of_rho     :     28.86s CPU     30.55s WALL (      14 calls)
     newd         :      4.17s CPU      4.64s WALL (      14 calls)
     mix_rho      :      3.18s CPU      3.25s WALL (      11 calls)

     Called by c_bands:
     init_us_2    :     62.57s CPU     92.33s WALL (   26390 calls)
     cegterg      :   1846.45s CPU   2034.39s WALL (   10010 calls)

     Called by sum_band:
     sum_band:bec :      0.24s CPU      0.33s WALL (   10010 calls)
     addusdens    :      1.98s CPU      2.47s WALL (      11 calls)

     Called by *egterg:
     h_psi        :   1935.86s CPU   2062.82s WALL (   29120 calls)
     s_psi        :      7.84s CPU     23.18s WALL (   29120 calls)
     g_psi        :      2.59s CPU      9.79s WALL (   18200 calls)
     cdiaghg      :      0.29s CPU      1.14s WALL (   26390 calls)

     Called by h_psi:
     h_psi:pot    :   1933.60s CPU   2057.04s WALL (   29120 calls)
     h_psi:calbec :     16.32s CPU     22.94s WALL (   29120 calls)
     vloc_psi     :   1903.70s CPU   2009.80s WALL (   29120 calls)
     add_vuspsi   :     11.92s CPU     21.92s WALL (   29120 calls)

     General routines
     calbec       :     24.96s CPU     38.15s WALL (   52780 calls)
     fft          :     27.03s CPU     27.16s WALL (     202 calls)
     ffts         :      1.25s CPU      1.26s WALL (      25 calls)
     fftw         :   1931.11s CPU   1978.80s WALL (   70070 calls)
     interpolate  :      2.94s CPU      3.04s WALL (      14 calls)

     Parallel routines

     PWSCF        :  42m13.49s CPU  46m54.07s WALL


   This run was terminated on:  20: 9:27   1Jun2020            

=------------------------------------------------------------------------------=
   JOB DONE.
=------------------------------------------------------------------------------=
