--------------------------------------------------------------------------
[[20902,1],0]: A high-performance Open MPI point-to-point messaging module
was unable to find any relevant network interfaces:

Module: OpenFabrics (openib)
  Host: ubuntu

Another transport will be used instead, although this may result in
lower performance.
--------------------------------------------------------------------------

     Program PWSCF v.5.1 starts on 31May2020 at 20:49:47 

     This program is part of the open-source Quantum ESPRESSO suite
     for quantum simulation of materials; please cite
         "P. Giannozzi et al., J. Phys.:Condens. Matter 21 395502 (2009);
          URL http://www.quantum-espresso.org", 
     in publications or presentations arising from this work. More details at
     http://www.quantum-espresso.org/quote

     Parallel version (MPI), running on     1 processors
     Reading input from H2_16_15.118_40.pw.in

     Current dimensions of program PWSCF are:
     Max number of different atomic species (ntypx) = 10
     Max number of k-points (npk) =  40000
     Max angular momentum in pseudopotentials (lmaxx) =  3
               file H.pbe-rrkjus.UPF: wavefunction(s)  1S renormalized

     Subspace diagonalization in iterative solution of the eigenvalue problem:
     a serial algorithm will be used


     G-vector sticks info
     --------------------
     sticks:   dense  smooth     PW     G-vecs:    dense   smooth      PW
     Sum        4729    2527    691               262475   102163   14847



     bravais-lattice index     =            4
     lattice parameter (alat)  =      15.1180  a.u.
     unit-cell volume          =    2992.3587 (a.u.)^3
     number of atoms/cell      =            2
     number of atomic types    =            1
     number of electrons       =         2.00
     number of Kohn-Sham states=            1
     kinetic-energy cutoff     =      40.0000  Ry
     charge density cutoff     =     300.0000  Ry
     convergence threshold     =      1.0E-06
     mixing beta               =       0.7000
     number of iterations used =            8  plain     mixing
     Exchange-correlation      =  SLA  PW   PBE  PBE ( 1  4  3  4 0)
     nstep                     =           50


     celldm(1)=  15.118000  celldm(2)=   0.000000  celldm(3)=   1.000000
     celldm(4)=   0.000000  celldm(5)=   0.000000  celldm(6)=   0.000000

     crystal axes: (cart. coord. in units of alat)
               a(1) = (   1.000000   0.000000   0.000000 )  
               a(2) = (  -0.500000   0.866025   0.000000 )  
               a(3) = (   0.000000   0.000000   1.000000 )  

     reciprocal axes: (cart. coord. in units 2 pi/alat)
               b(1) = (  1.000000  0.577350 -0.000000 )  
               b(2) = (  0.000000  1.154701  0.000000 )  
               b(3) = (  0.000000 -0.000000  1.000000 )  


     PseudoPot. # 1 for H  read from file:
     ./H.pbe-rrkjus.UPF
     MD5 check sum: 0433647300470310da31d564c103eed6
     Pseudo is Ultrasoft, Zval =  1.0
     Generated by new atomic code, or converted to UPF format
     Using radial grid of 1061 points,  2 beta functions with: 
                l(1) =   0
                l(2) =   0
     Q(r) pseudized with 0 coefficients 


     atomic species   valence    mass     pseudopotential
        H              1.00     1.00794     H ( 1.00)

      4 Sym. Ops. (no inversion) found
          (note:  4 additional sym.ops. were found but ignored
           their fractional translations are incommensurate with FFT grid)


   Cartesian axes

     site n.     atom                  positions (alat units)
         1           H   tau(   1) = (   0.0000000   0.0000000   0.0000000  )
         2           H   tau(   2) = (   0.0927488   0.0000000   0.0000000  )

     number of k points=   657

     Number of k-points >= 100: set verbosity='high' to print them.

     Dense  grid:   262475 G-vectors     FFT dimensions: (  90,  90,  90)

     Smooth grid:   102163 G-vectors     FFT dimensions: (  64,  64,  64)

     Largest allocated arrays     est. size (Mb)     dimensions
        Kohn-Sham Wavefunctions         0.20 Mb     (   12828,    1)
        NL pseudopotentials             0.78 Mb     (   12828,    4)
        Each V/rho on FFT grid         11.12 Mb     (  729000)
        Each G-vector array             2.00 Mb     (  262475)
        G-vector shells                 0.01 Mb     (    1631)
     Largest temporary arrays     est. size (Mb)     dimensions
        Auxiliary wavefunctions         0.78 Mb     (   12828,    4)
        Each subspace H/S matrix        0.00 Mb     (       4,    4)
        Each <psi_i|beta_j> matrix      0.00 Mb     (       4,    1)
        Arrays for rho mixing          88.99 Mb     (  729000,    8)

     Initial potential from superposition of free atoms

     starting charge    1.80759, renormalised to    2.00000

     negative rho (up, down):  4.615E-05 0.000E+00
     Starting wfc are    2 randomized atomic wfcs

     total cpu time spent up to now is       12.2 secs

     per-process dynamical memory:   238.8 Mb

     Self-consistent Calculation

     iteration #  1     ecut=    40.00 Ry     beta=0.70
     Davidson diagonalization with overlap
     ethr =  1.00E-02,  avg # of iterations =  2.0

     negative rho (up, down):  1.363E-05 0.000E+00

     total cpu time spent up to now is       28.3 secs

     total energy              =      -2.29275230 Ry
     Harris-Foulkes estimate   =      -2.70621115 Ry
     estimated scf accuracy    <       0.64200013 Ry

     iteration #  2     ecut=    40.00 Ry     beta=0.70
     Davidson diagonalization with overlap
     ethr =  1.00E-02,  avg # of iterations =  2.0

     negative rho (up, down):  4.003E-06 0.000E+00

     total cpu time spent up to now is       43.7 secs

     total energy              =      -2.32864648 Ry
     Harris-Foulkes estimate   =      -2.33655116 Ry
     estimated scf accuracy    <       0.01660605 Ry

     iteration #  3     ecut=    40.00 Ry     beta=0.70
     Davidson diagonalization with overlap
     ethr =  8.30E-04,  avg # of iterations =  2.0

     negative rho (up, down):  2.152E-06 0.000E+00

     total cpu time spent up to now is       60.9 secs

     total energy              =      -2.33100447 Ry
     Harris-Foulkes estimate   =      -2.33071894 Ry
     estimated scf accuracy    <       0.00076892 Ry

     iteration #  4     ecut=    40.00 Ry     beta=0.70
     Davidson diagonalization with overlap
     ethr =  3.84E-05,  avg # of iterations =  1.0

     negative rho (up, down):  3.041E-05 0.000E+00

     total cpu time spent up to now is       72.2 secs

     total energy              =      -2.33102601 Ry
     Harris-Foulkes estimate   =      -2.33104757 Ry
     estimated scf accuracy    <       0.00004636 Ry

     iteration #  5     ecut=    40.00 Ry     beta=0.70
     Davidson diagonalization with overlap
     ethr =  2.32E-06,  avg # of iterations =  2.0

     negative rho (up, down):  3.104E-06 0.000E+00

     total cpu time spent up to now is       87.5 secs

     End of self-consistent calculation

     Number of k-points >= 100: set verbosity='high' to print the bands.

     highest occupied level (ev):   -10.3007

!    total energy              =      -2.33103280 Ry
     Harris-Foulkes estimate   =      -2.33103301 Ry
     estimated scf accuracy    <       0.00000034 Ry

     The total energy is the sum of the following terms:

     one-electron contribution =      -3.43450412 Ry
     hartree contribution      =       1.84365908 Ry
     xc contribution           =      -1.37694441 Ry
     ewald contribution        =       0.63675665 Ry

     convergence has been achieved in   5 iterations

     Forces acting on atoms (Ry/au):

     atom    1 type  1   force =    -0.01434941   -0.00000000    0.00000000
     atom    2 type  1   force =     0.01434941    0.00000000    0.00000000

     Total force =     0.020293     Total SCF correction =     0.000100


     entering subroutine stress ...

          total   stress  (Ry/bohr**3)                   (kbar)     P=    0.30
   0.00000656   0.00000000   0.00000000          0.97      0.00      0.00
   0.00000000  -0.00000018  -0.00000000          0.00     -0.03     -0.00
   0.00000000  -0.00000000  -0.00000018          0.00     -0.00     -0.03


     BFGS Geometry Optimization

     number of scf cycles    =   1
     number of bfgs steps    =   0

     energy   new            =      -2.3310327968 Ry

     new trust radius        =       0.0143494141 bohr
     new conv_thr            =       0.0000010000 Ry


ATOMIC_POSITIONS (crystal)
H       -0.000949161  -0.000000000   0.000000000
H        0.093697990   0.000000000   0.000000000



     Writing output data file H2_gas.save
     NEW-OLD atomic charge density approx. for the potential

     negative rho (up, down):  2.211E-04 0.000E+00

     total cpu time spent up to now is       93.0 secs

     per-process dynamical memory:   261.0 Mb

     Self-consistent Calculation

     iteration #  1     ecut=    40.00 Ry     beta=0.70
     Davidson diagonalization with overlap
     ethr =  1.00E-06,  avg # of iterations =  3.0

     negative rho (up, down):  5.191E-05 0.000E+00

     total cpu time spent up to now is      112.8 secs

     total energy              =      -2.33112227 Ry
     Harris-Foulkes estimate   =      -2.33117704 Ry
     estimated scf accuracy    <       0.00011839 Ry

     iteration #  2     ecut=    40.00 Ry     beta=0.70
     Davidson diagonalization with overlap
     ethr =  5.92E-06,  avg # of iterations =  1.0

     negative rho (up, down):  1.083E-05 0.000E+00

     total cpu time spent up to now is      124.3 secs

     total energy              =      -2.33113316 Ry
     Harris-Foulkes estimate   =      -2.33113302 Ry
     estimated scf accuracy    <       0.00000129 Ry

     iteration #  3     ecut=    40.00 Ry     beta=0.70
     Davidson diagonalization with overlap
     ethr =  6.44E-08,  avg # of iterations =  2.0

     negative rho (up, down):  2.861E-06 0.000E+00

     total cpu time spent up to now is      139.8 secs

     End of self-consistent calculation

     Number of k-points >= 100: set verbosity='high' to print the bands.

     highest occupied level (ev):   -10.2338

!    total energy              =      -2.33113338 Ry
     Harris-Foulkes estimate   =      -2.33113339 Ry
     estimated scf accuracy    <       0.00000006 Ry

     The total energy is the sum of the following terms:

     one-electron contribution =      -3.39557540 Ry
     hartree contribution      =       1.82380419 Ry
     xc contribution           =      -1.36763634 Ry
     ewald contribution        =       0.60827416 Ry

     convergence has been achieved in   3 iterations

     Forces acting on atoms (Ry/au):

     atom    1 type  1   force =     0.00688591    0.00000000    0.00000000
     atom    2 type  1   force =    -0.00688591    0.00000000    0.00000000

     Total force =     0.009738     Total SCF correction =     0.000043


     entering subroutine stress ...

          total   stress  (Ry/bohr**3)                   (kbar)     P=   -0.17
  -0.00000335   0.00000000   0.00000000         -0.49      0.00      0.00
   0.00000000  -0.00000007   0.00000000          0.00     -0.01      0.00
   0.00000000   0.00000000  -0.00000006          0.00      0.00     -0.01


     number of scf cycles    =   2
     number of bfgs steps    =   1

     energy   old            =      -2.3310327968 Ry
     energy   new            =      -2.3311333838 Ry

     CASE: energy  _new < energy  _old

     new trust radius        =       0.0046530378 bohr
     new conv_thr            =       0.0000000101 Ry


ATOMIC_POSITIONS (crystal)
H       -0.000641380  -0.000000000   0.000000000
H        0.093390208   0.000000000   0.000000000



     Writing output data file H2_gas.save
     NEW-OLD atomic charge density approx. for the potential

     negative rho (up, down):  7.644E-05 0.000E+00

     total cpu time spent up to now is      145.4 secs

     per-process dynamical memory:   261.0 Mb

     Self-consistent Calculation

     iteration #  1     ecut=    40.00 Ry     beta=0.70
     Davidson diagonalization with overlap
     ethr =  1.00E-06,  avg # of iterations =  2.0

     negative rho (up, down):  1.776E-05 0.000E+00

     total cpu time spent up to now is      161.1 secs

     total energy              =      -2.33116531 Ry
     Harris-Foulkes estimate   =      -2.33117125 Ry
     estimated scf accuracy    <       0.00001252 Ry

     iteration #  2     ecut=    40.00 Ry     beta=0.70
     Davidson diagonalization with overlap
     ethr =  6.26E-07,  avg # of iterations =  1.0

     negative rho (up, down):  4.817E-06 0.000E+00

     total cpu time spent up to now is      172.5 secs

     total energy              =      -2.33116641 Ry
     Harris-Foulkes estimate   =      -2.33116640 Ry
     estimated scf accuracy    <       0.00000015 Ry

     iteration #  3     ecut=    40.00 Ry     beta=0.70
     Davidson diagonalization with overlap
     ethr =  7.42E-09,  avg # of iterations =  2.0

     negative rho (up, down):  2.939E-06 0.000E+00

     total cpu time spent up to now is      188.7 secs

     End of self-consistent calculation

     Number of k-points >= 100: set verbosity='high' to print the bands.

     highest occupied level (ev):   -10.2556

!    total energy              =      -2.33116645 Ry
     Harris-Foulkes estimate   =      -2.33116644 Ry
     estimated scf accuracy    <          6.4E-09 Ry

     The total energy is the sum of the following terms:

     one-electron contribution =      -3.40815107 Ry
     hartree contribution      =       1.83026691 Ry
     xc contribution           =      -1.37066555 Ry
     ewald contribution        =       0.61738325 Ry

     convergence has been achieved in   3 iterations

     Forces acting on atoms (Ry/au):

     atom    1 type  1   force =     0.00022679    0.00000000    0.00000000
     atom    2 type  1   force =    -0.00022679    0.00000000    0.00000000

     Total force =     0.000321     Total SCF correction =     0.000011


     entering subroutine stress ...

          total   stress  (Ry/bohr**3)                   (kbar)     P=   -0.02
  -0.00000019   0.00000000   0.00000000         -0.03      0.00      0.00
   0.00000000  -0.00000009  -0.00000000          0.00     -0.01     -0.00
   0.00000000  -0.00000000  -0.00000008          0.00     -0.00     -0.01


     bfgs converged in   3 scf cycles and   2 bfgs steps
     (criteria: energy <  1.0E-04, force <  1.0E-03)

     End of BFGS Geometry Optimization

     Final energy   =      -2.3311664542 Ry
Begin final coordinates

ATOMIC_POSITIONS (crystal)
H       -0.000641380  -0.000000000   0.000000000
H        0.093390208   0.000000000   0.000000000
End final coordinates



     Writing output data file H2_gas.save

     init_run     :      6.17s CPU     12.11s WALL (       1 calls)
     electrons    :     65.15s CPU    165.69s WALL (       3 calls)
     update_pot   :      1.28s CPU      1.44s WALL (       2 calls)
     forces       :      1.44s CPU      3.56s WALL (       3 calls)
     stress       :      3.48s CPU      7.59s WALL (       3 calls)

     Called by init_run:
     wfcinit      :      3.88s CPU      9.63s WALL (       1 calls)
     potinit      :      0.82s CPU      0.92s WALL (       1 calls)

     Called by electrons:
     c_bands      :     49.04s CPU    130.52s WALL (      11 calls)
     sum_band     :      9.97s CPU     28.47s WALL (      11 calls)
     v_of_rho     :      6.19s CPU      6.69s WALL (      14 calls)
     newd         :      0.56s CPU      0.61s WALL (      14 calls)
     mix_rho      :      0.40s CPU      0.47s WALL (      11 calls)

     Called by c_bands:
     init_us_2    :      4.48s CPU     12.48s WALL (   19053 calls)
     cegterg      :     45.89s CPU    122.64s WALL (    7227 calls)

     Called by *egterg:
     h_psi        :     44.04s CPU    118.04s WALL (   21024 calls)
     s_psi        :      0.82s CPU      2.30s WALL (   21024 calls)
     g_psi        :      0.32s CPU      0.92s WALL (   13140 calls)
     cdiaghg      :      0.38s CPU      0.79s WALL (   19053 calls)

     Called by h_psi:
     add_vuspsi   :      1.09s CPU      2.43s WALL (   21024 calls)

     General routines
     calbec       :      1.82s CPU      4.56s WALL (   32193 calls)
     fft          :      5.00s CPU      5.48s WALL (     238 calls)
     ffts         :      0.04s CPU      0.07s WALL (      25 calls)
     fftw         :     38.14s CPU     99.98s WALL (   50589 calls)
     interpolate  :      0.63s CPU      0.73s WALL (      25 calls)
     davcio       :      0.00s CPU      0.06s WALL (     657 calls)

     Parallel routines
     fft_scatter  :      4.86s CPU     15.54s WALL (   50852 calls)

     PWSCF        :  1m20.41s CPU     3m13.60s WALL


   This run was terminated on:  20:53: 0  31May2020            

=------------------------------------------------------------------------------=
   JOB DONE.
=------------------------------------------------------------------------------=
