--------------------------------------------------------------------------
[[20911,1],0]: A high-performance Open MPI point-to-point messaging module
was unable to find any relevant network interfaces:

Module: OpenFabrics (openib)
  Host: ubuntu

Another transport will be used instead, although this may result in
lower performance.
--------------------------------------------------------------------------

     Program PWSCF v.5.1 starts on 31May2020 at 20:53: 0 

     This program is part of the open-source Quantum ESPRESSO suite
     for quantum simulation of materials; please cite
         "P. Giannozzi et al., J. Phys.:Condens. Matter 21 395502 (2009);
          URL http://www.quantum-espresso.org", 
     in publications or presentations arising from this work. More details at
     http://www.quantum-espresso.org/quote

     Parallel version (MPI), running on     1 processors
     Reading input from H2_16_15.118_50.pw.in

     Current dimensions of program PWSCF are:
     Max number of different atomic species (ntypx) = 10
     Max number of k-points (npk) =  40000
     Max angular momentum in pseudopotentials (lmaxx) =  3
               file H.pbe-rrkjus.UPF: wavefunction(s)  1S renormalized

     Subspace diagonalization in iterative solution of the eigenvalue problem:
     a serial algorithm will be used


     G-vector sticks info
     --------------------
     sticks:   dense  smooth     PW     G-vecs:    dense   smooth      PW
     Sum        4729    3145    859               262475   142857   20621



     bravais-lattice index     =            4
     lattice parameter (alat)  =      15.1180  a.u.
     unit-cell volume          =    2992.3587 (a.u.)^3
     number of atoms/cell      =            2
     number of atomic types    =            1
     number of electrons       =         2.00
     number of Kohn-Sham states=            1
     kinetic-energy cutoff     =      50.0000  Ry
     charge density cutoff     =     300.0000  Ry
     convergence threshold     =      1.0E-06
     mixing beta               =       0.7000
     number of iterations used =            8  plain     mixing
     Exchange-correlation      =  SLA  PW   PBE  PBE ( 1  4  3  4 0)
     nstep                     =           50


     celldm(1)=  15.118000  celldm(2)=   0.000000  celldm(3)=   1.000000
     celldm(4)=   0.000000  celldm(5)=   0.000000  celldm(6)=   0.000000

     crystal axes: (cart. coord. in units of alat)
               a(1) = (   1.000000   0.000000   0.000000 )  
               a(2) = (  -0.500000   0.866025   0.000000 )  
               a(3) = (   0.000000   0.000000   1.000000 )  

     reciprocal axes: (cart. coord. in units 2 pi/alat)
               b(1) = (  1.000000  0.577350 -0.000000 )  
               b(2) = (  0.000000  1.154701  0.000000 )  
               b(3) = (  0.000000 -0.000000  1.000000 )  


     PseudoPot. # 1 for H  read from file:
     ./H.pbe-rrkjus.UPF
     MD5 check sum: 0433647300470310da31d564c103eed6
     Pseudo is Ultrasoft, Zval =  1.0
     Generated by new atomic code, or converted to UPF format
     Using radial grid of 1061 points,  2 beta functions with: 
                l(1) =   0
                l(2) =   0
     Q(r) pseudized with 0 coefficients 


     atomic species   valence    mass     pseudopotential
        H              1.00     1.00794     H ( 1.00)

      4 Sym. Ops. (no inversion) found
          (note:  4 additional sym.ops. were found but ignored
           their fractional translations are incommensurate with FFT grid)


   Cartesian axes

     site n.     atom                  positions (alat units)
         1           H   tau(   1) = (   0.0000000   0.0000000   0.0000000  )
         2           H   tau(   2) = (   0.0927488   0.0000000   0.0000000  )

     number of k points=   657

     Number of k-points >= 100: set verbosity='high' to print them.

     Dense  grid:   262475 G-vectors     FFT dimensions: (  90,  90,  90)

     Smooth grid:   142857 G-vectors     FFT dimensions: (  72,  72,  72)

     Largest allocated arrays     est. size (Mb)     dimensions
        Kohn-Sham Wavefunctions         0.27 Mb     (   17904,    1)
        NL pseudopotentials             1.09 Mb     (   17904,    4)
        Each V/rho on FFT grid         11.12 Mb     (  729000)
        Each G-vector array             2.00 Mb     (  262475)
        G-vector shells                 0.01 Mb     (    1631)
     Largest temporary arrays     est. size (Mb)     dimensions
        Auxiliary wavefunctions         1.09 Mb     (   17904,    4)
        Each subspace H/S matrix        0.00 Mb     (       4,    4)
        Each <psi_i|beta_j> matrix      0.00 Mb     (       4,    1)
        Arrays for rho mixing          88.99 Mb     (  729000,    8)

     Initial potential from superposition of free atoms

     starting charge    1.80759, renormalised to    2.00000

     negative rho (up, down):  4.615E-05 0.000E+00
     Starting wfc are    2 randomized atomic wfcs

     total cpu time spent up to now is       21.4 secs

     per-process dynamical memory:   293.6 Mb

     Self-consistent Calculation

     iteration #  1     ecut=    50.00 Ry     beta=0.70
     Davidson diagonalization with overlap
     ethr =  1.00E-02,  avg # of iterations =  2.0

     negative rho (up, down):  1.363E-05 0.000E+00

     total cpu time spent up to now is       51.3 secs

     total energy              =      -2.29275757 Ry
     Harris-Foulkes estimate   =      -2.70626013 Ry
     estimated scf accuracy    <       0.64205857 Ry

     iteration #  2     ecut=    50.00 Ry     beta=0.70
     Davidson diagonalization with overlap
     ethr =  1.00E-02,  avg # of iterations =  2.0

     negative rho (up, down):  3.525E-06 0.000E+00

     total cpu time spent up to now is       80.7 secs

     total energy              =      -2.32866859 Ry
     Harris-Foulkes estimate   =      -2.33657058 Ry
     estimated scf accuracy    <       0.01660436 Ry

     iteration #  3     ecut=    50.00 Ry     beta=0.70
     Davidson diagonalization with overlap
     ethr =  8.30E-04,  avg # of iterations =  2.0

     negative rho (up, down):  1.431E-06 0.000E+00

     total cpu time spent up to now is      112.4 secs

     total energy              =      -2.33102556 Ry
     Harris-Foulkes estimate   =      -2.33074070 Ry
     estimated scf accuracy    <       0.00076900 Ry

     iteration #  4     ecut=    50.00 Ry     beta=0.70
     Davidson diagonalization with overlap
     ethr =  3.84E-05,  avg # of iterations =  1.0

     negative rho (up, down):  2.912E-05 0.000E+00

     total cpu time spent up to now is      134.4 secs

     total energy              =      -2.33104713 Ry
     Harris-Foulkes estimate   =      -2.33106867 Ry
     estimated scf accuracy    <       0.00004636 Ry

     iteration #  5     ecut=    50.00 Ry     beta=0.70
     Davidson diagonalization with overlap
     ethr =  2.32E-06,  avg # of iterations =  2.0

     negative rho (up, down):  3.110E-06 0.000E+00

     total cpu time spent up to now is      163.6 secs

     End of self-consistent calculation

     Number of k-points >= 100: set verbosity='high' to print the bands.

     highest occupied level (ev):   -10.3007

!    total energy              =      -2.33105393 Ry
     Harris-Foulkes estimate   =      -2.33105413 Ry
     estimated scf accuracy    <       0.00000034 Ry

     The total energy is the sum of the following terms:

     one-electron contribution =      -3.43453762 Ry
     hartree contribution      =       1.84368738 Ry
     xc contribution           =      -1.37696035 Ry
     ewald contribution        =       0.63675665 Ry

     convergence has been achieved in   5 iterations

     Forces acting on atoms (Ry/au):

     atom    1 type  1   force =    -0.01433444    0.00000000    0.00000000
     atom    2 type  1   force =     0.01433444    0.00000000    0.00000000

     Total force =     0.020272     Total SCF correction =     0.000098


     entering subroutine stress ...

          total   stress  (Ry/bohr**3)                   (kbar)     P=    0.31
   0.00000663   0.00000000   0.00000000          0.98      0.00      0.00
   0.00000000  -0.00000011   0.00000000          0.00     -0.02      0.00
   0.00000000   0.00000000  -0.00000010          0.00      0.00     -0.02


     BFGS Geometry Optimization

     number of scf cycles    =   1
     number of bfgs steps    =   0

     energy   new            =      -2.3310539303 Ry

     new trust radius        =       0.0143344394 bohr
     new conv_thr            =       0.0000010000 Ry


ATOMIC_POSITIONS (crystal)
H       -0.000948170   0.000000000   0.000000000
H        0.093696999   0.000000000   0.000000000



     Writing output data file H2_gas.save
     NEW-OLD atomic charge density approx. for the potential

     negative rho (up, down):  2.208E-04 0.000E+00

     total cpu time spent up to now is      170.3 secs

     per-process dynamical memory:   315.7 Mb

     Self-consistent Calculation

     iteration #  1     ecut=    50.00 Ry     beta=0.70
     Davidson diagonalization with overlap
     ethr =  1.00E-06,  avg # of iterations =  3.0

     negative rho (up, down):  5.184E-05 0.000E+00

     total cpu time spent up to now is      208.2 secs

     total energy              =      -2.33114311 Ry
     Harris-Foulkes estimate   =      -2.33119780 Ry
     estimated scf accuracy    <       0.00011816 Ry

     iteration #  2     ecut=    50.00 Ry     beta=0.70
     Davidson diagonalization with overlap
     ethr =  5.91E-06,  avg # of iterations =  1.0

     negative rho (up, down):  1.051E-05 0.000E+00

     total cpu time spent up to now is      229.7 secs

     total energy              =      -2.33115402 Ry
     Harris-Foulkes estimate   =      -2.33115385 Ry
     estimated scf accuracy    <       0.00000129 Ry

     iteration #  3     ecut=    50.00 Ry     beta=0.70
     Davidson diagonalization with overlap
     ethr =  6.45E-08,  avg # of iterations =  2.0

     negative rho (up, down):  2.867E-06 0.000E+00

     total cpu time spent up to now is      259.4 secs

     End of self-consistent calculation

     Number of k-points >= 100: set verbosity='high' to print the bands.

     highest occupied level (ev):   -10.2339

!    total energy              =      -2.33115425 Ry
     Harris-Foulkes estimate   =      -2.33115425 Ry
     estimated scf accuracy    <       0.00000006 Ry

     The total energy is the sum of the following terms:

     one-electron contribution =      -3.39564917 Ry
     hartree contribution      =       1.82385389 Ry
     xc contribution           =      -1.36766225 Ry
     ewald contribution        =       0.60830329 Ry

     convergence has been achieved in   3 iterations

     Forces acting on atoms (Ry/au):

     atom    1 type  1   force =     0.00688177    0.00000000    0.00000000
     atom    2 type  1   force =    -0.00688177    0.00000000    0.00000000

     Total force =     0.009732     Total SCF correction =     0.000042


     entering subroutine stress ...

          total   stress  (Ry/bohr**3)                   (kbar)     P=   -0.16
  -0.00000327  -0.00000000   0.00000000         -0.48     -0.00      0.00
  -0.00000000   0.00000001   0.00000000         -0.00      0.00      0.00
   0.00000000   0.00000000   0.00000001          0.00      0.00      0.00


     number of scf cycles    =   2
     number of bfgs steps    =   1

     energy   old            =      -2.3310539303 Ry
     energy   new            =      -2.3311542468 Ry

     CASE: energy  _new < energy  _old

     new trust radius        =       0.0046495720 bohr
     new conv_thr            =       0.0000000100 Ry


ATOMIC_POSITIONS (crystal)
H       -0.000640618   0.000000000   0.000000000
H        0.093389447   0.000000000   0.000000000



     Writing output data file H2_gas.save
     NEW-OLD atomic charge density approx. for the potential

     negative rho (up, down):  7.642E-05 0.000E+00

     total cpu time spent up to now is      266.1 secs

     per-process dynamical memory:   315.7 Mb

     Self-consistent Calculation

     iteration #  1     ecut=    50.00 Ry     beta=0.70
     Davidson diagonalization with overlap
     ethr =  1.00E-06,  avg # of iterations =  2.0

     negative rho (up, down):  1.777E-05 0.000E+00

     total cpu time spent up to now is      295.4 secs

     total energy              =      -2.33118614 Ry
     Harris-Foulkes estimate   =      -2.33119205 Ry
     estimated scf accuracy    <       0.00001246 Ry

     iteration #  2     ecut=    50.00 Ry     beta=0.70
     Davidson diagonalization with overlap
     ethr =  6.23E-07,  avg # of iterations =  1.0

     negative rho (up, down):  4.730E-06 0.000E+00

     total cpu time spent up to now is      317.2 secs

     total energy              =      -2.33118721 Ry
     Harris-Foulkes estimate   =      -2.33118721 Ry
     estimated scf accuracy    <       0.00000015 Ry

     iteration #  3     ecut=    50.00 Ry     beta=0.70
     Davidson diagonalization with overlap
     ethr =  7.53E-09,  avg # of iterations =  2.0

     negative rho (up, down):  2.944E-06 0.000E+00

     total cpu time spent up to now is      346.0 secs

     End of self-consistent calculation

     Number of k-points >= 100: set verbosity='high' to print the bands.

     highest occupied level (ev):   -10.2556

!    total energy              =      -2.33118727 Ry
     Harris-Foulkes estimate   =      -2.33118725 Ry
     estimated scf accuracy    <          6.4E-09 Ry

     The total energy is the sum of the following terms:

     one-electron contribution =      -3.40821439 Ry
     hartree contribution      =       1.83030903 Ry
     xc contribution           =      -1.37068784 Ry
     ewald contribution        =       0.61740593 Ry

     convergence has been achieved in   3 iterations

     Forces acting on atoms (Ry/au):

     atom    1 type  1   force =     0.00022601    0.00000000    0.00000000
     atom    2 type  1   force =    -0.00022601    0.00000000    0.00000000

     Total force =     0.000320     Total SCF correction =     0.000011


     entering subroutine stress ...

          total   stress  (Ry/bohr**3)                   (kbar)     P=   -0.01
  -0.00000012  -0.00000000   0.00000000         -0.02     -0.00      0.00
  -0.00000000  -0.00000001   0.00000000         -0.00     -0.00      0.00
   0.00000000   0.00000000  -0.00000001          0.00      0.00     -0.00


     bfgs converged in   3 scf cycles and   2 bfgs steps
     (criteria: energy <  1.0E-04, force <  1.0E-03)

     End of BFGS Geometry Optimization

     Final energy   =      -2.3311872680 Ry
Begin final coordinates

ATOMIC_POSITIONS (crystal)
H       -0.000640618   0.000000000   0.000000000
H        0.093389447   0.000000000   0.000000000
End final coordinates



     Writing output data file H2_gas.save

     init_run     :     13.84s CPU     21.28s WALL (       1 calls)
     electrons    :    178.38s CPU    311.45s WALL (       3 calls)
     update_pot   :      1.31s CPU      1.40s WALL (       2 calls)
     forces       :      2.22s CPU      4.67s WALL (       3 calls)
     stress       :      4.16s CPU      9.91s WALL (       3 calls)

     Called by init_run:
     wfcinit      :     11.31s CPU     18.46s WALL (       1 calls)
     potinit      :      0.73s CPU      0.79s WALL (       1 calls)

     Called by electrons:
     c_bands      :    144.98s CPU    253.36s WALL (      11 calls)
     sum_band     :     27.35s CPU     51.46s WALL (      11 calls)
     v_of_rho     :      6.01s CPU      6.42s WALL (      14 calls)
     newd         :      0.54s CPU      0.59s WALL (      14 calls)
     mix_rho      :      0.40s CPU      0.51s WALL (      11 calls)

     Called by c_bands:
     init_us_2    :      7.04s CPU     17.12s WALL (   19053 calls)
     cegterg      :    142.14s CPU    243.00s WALL (    7227 calls)

     Called by *egterg:
     h_psi        :    145.66s CPU    242.69s WALL (   21024 calls)
     s_psi        :      1.33s CPU      3.07s WALL (   21024 calls)
     g_psi        :      0.48s CPU      1.25s WALL (   13140 calls)
     cdiaghg      :      0.27s CPU      0.78s WALL (   19053 calls)

     Called by h_psi:
     add_vuspsi   :      1.57s CPU      3.36s WALL (   21024 calls)

     General routines
     calbec       :      3.24s CPU      6.41s WALL (   32193 calls)
     fft          :      4.93s CPU      5.39s WALL (     238 calls)
     ffts         :      0.09s CPU      0.16s WALL (      25 calls)
     fftw         :    143.74s CPU    234.55s WALL (   50589 calls)
     interpolate  :      0.69s CPU      0.83s WALL (      25 calls)
     davcio       :      0.00s CPU      0.07s WALL (     657 calls)

     Parallel routines
     fft_scatter  :      6.53s CPU     20.81s WALL (   50852 calls)

     PWSCF        :  3m22.80s CPU     5m51.98s WALL


   This run was terminated on:  20:58:52  31May2020            

=------------------------------------------------------------------------------=
   JOB DONE.
=------------------------------------------------------------------------------=
