
     Program PWSCF v.6.4.1 starts on 31May2020 at 22:33:38 

     This program is part of the open-source Quantum ESPRESSO suite
     for quantum simulation of materials; please cite
         "P. Giannozzi et al., J. Phys.:Condens. Matter 21 395502 (2009);
         "P. Giannozzi et al., J. Phys.:Condens. Matter 29 465901 (2017);
          URL http://www.quantum-espresso.org", 
     in publications or presentations arising from this work. More details at
     http://www.quantum-espresso.org/quote

     Parallel version (MPI & OpenMP), running on       1 processor cores
     Number of MPI processes:                 1
     Threads/MPI process:                     1

     MPI processes distributed on     1 nodes
     Reading input from H2_24_15.118_50.pw.in

     Current dimensions of program PWSCF are:
     Max number of different atomic species (ntypx) = 10
     Max number of k-points (npk) =  40000
     Max angular momentum in pseudopotentials (lmaxx) =  3
               file H.pbe-rrkjus.UPF: wavefunction(s)  1S renormalized

     Subspace diagonalization in iterative solution of the eigenvalue problem:
     a serial algorithm will be used

 
     G-vector sticks info
     --------------------
     sticks:   dense  smooth     PW     G-vecs:    dense   smooth      PW
     Sum        7873    3145    859               565091   142857   20669
 


     bravais-lattice index     =            4
     lattice parameter (alat)  =      15.1180  a.u.
     unit-cell volume          =    2992.3587 (a.u.)^3
     number of atoms/cell      =            2
     number of atomic types    =            1
     number of electrons       =         2.00
     number of Kohn-Sham states=            1
     kinetic-energy cutoff     =      50.0000  Ry
     charge density cutoff     =     500.0000  Ry
     convergence threshold     =      1.0E-06
     mixing beta               =       0.7000
     number of iterations used =            8  plain     mixing
     Exchange-correlation      =  SLA  PW   PBE  PBE ( 1  4  3  4 0 0)
     nstep                     =           50


     celldm(1)=  15.118000  celldm(2)=   0.000000  celldm(3)=   1.000000
     celldm(4)=   0.000000  celldm(5)=   0.000000  celldm(6)=   0.000000

     crystal axes: (cart. coord. in units of alat)
               a(1) = (   1.000000   0.000000   0.000000 )  
               a(2) = (  -0.500000   0.866025   0.000000 )  
               a(3) = (   0.000000   0.000000   1.000000 )  

     reciprocal axes: (cart. coord. in units 2 pi/alat)
               b(1) = (  1.000000  0.577350  0.000000 )  
               b(2) = (  0.000000  1.154701  0.000000 )  
               b(3) = (  0.000000  0.000000  1.000000 )  


     PseudoPot. # 1 for H  read from file:
     ./H.pbe-rrkjus.UPF
     MD5 check sum: 0433647300470310da31d564c103eed6
     Pseudo is Ultrasoft, Zval =  1.0
     Generated by new atomic code, or converted to UPF format
     Using radial grid of 1061 points,  2 beta functions with: 
                l(1) =   0
                l(2) =   0
     Q(r) pseudized with 0 coefficients 


     atomic species   valence    mass     pseudopotential
        H              1.00     1.00794     H ( 1.00)

      4 Sym. Ops. (no inversion) found



   Cartesian axes

     site n.     atom                  positions (alat units)
         1           H   tau(   1) = (   0.0000000   0.0000000   0.0000000  )
         2           H   tau(   2) = (   0.0927488   0.0000000   0.0000000  )

     number of k points=  2041

     Number of k-points >= 100: set verbosity='high' to print them.

     Dense  grid:   565091 G-vectors     FFT dimensions: ( 108, 108, 108)

     Smooth grid:   142857 G-vectors     FFT dimensions: (  72,  72,  72)

     Estimated max dynamical RAM per process >     966.67 MB

     Initial potential from superposition of free atoms

     starting charge    1.80759, renormalised to    2.00000

     negative rho (up, down):  4.503E-05 0.000E+00
     Starting wfcs are    2 randomized atomic wfcs

     total cpu time spent up to now is       44.7 secs

     Self-consistent Calculation

     iteration #  1     ecut=    50.00 Ry     beta= 0.70
     Davidson diagonalization with overlap
     ethr =  1.00E-02,  avg # of iterations =  2.0

     negative rho (up, down):  1.331E-05 0.000E+00

     total cpu time spent up to now is      110.4 secs

     total energy              =      -2.29275774 Ry
     Harris-Foulkes estimate   =      -2.70625073 Ry
     estimated scf accuracy    <       0.64205834 Ry

     iteration #  2     ecut=    50.00 Ry     beta= 0.70
     Davidson diagonalization with overlap
     ethr =  1.00E-02,  avg # of iterations =  2.0

     negative rho (up, down):  4.400E-06 0.000E+00

     total cpu time spent up to now is      175.8 secs

     total energy              =      -2.32866763 Ry
     Harris-Foulkes estimate   =      -2.33657127 Ry
     estimated scf accuracy    <       0.01660413 Ry

     iteration #  3     ecut=    50.00 Ry     beta= 0.70
     Davidson diagonalization with overlap
     ethr =  8.30E-04,  avg # of iterations =  2.0

     negative rho (up, down):  2.765E-06 0.000E+00

     total cpu time spent up to now is      241.0 secs

     total energy              =      -2.33102869 Ry
     Harris-Foulkes estimate   =      -2.33073929 Ry
     estimated scf accuracy    <       0.00076889 Ry

     iteration #  4     ecut=    50.00 Ry     beta= 0.70
     Davidson diagonalization with overlap
     ethr =  3.84E-05,  avg # of iterations =  1.0

     negative rho (up, down):  3.115E-05 0.000E+00

     total cpu time spent up to now is      289.1 secs

     total energy              =      -2.33105015 Ry
     Harris-Foulkes estimate   =      -2.33107173 Ry
     estimated scf accuracy    <       0.00004631 Ry

     iteration #  5     ecut=    50.00 Ry     beta= 0.70
     Davidson diagonalization with overlap
     ethr =  2.32E-06,  avg # of iterations =  2.0

     negative rho (up, down):  2.896E-06 0.000E+00

     total cpu time spent up to now is      354.3 secs

     End of self-consistent calculation

     Number of k-points >= 100: set verbosity='high' to print the bands.

     highest occupied level (ev):   -10.3007

!    total energy              =      -2.33105691 Ry
     Harris-Foulkes estimate   =      -2.33105715 Ry
     estimated scf accuracy    <       0.00000034 Ry

     The total energy is the sum of the following terms:

     one-electron contribution =      -3.43453789 Ry
     hartree contribution      =       1.84368786 Ry
     xc contribution           =      -1.37696353 Ry
     ewald contribution        =       0.63675665 Ry

     convergence has been achieved in   5 iterations

     Forces acting on atoms (cartesian axes, Ry/au):

     atom    1 type  1   force =    -0.01433108    0.00000000    0.00000000
     atom    2 type  1   force =     0.01433108   -0.00000000    0.00000000

     Total force =     0.020267     Total SCF correction =     0.000102


     Computing stress (Cartesian axis) and pressure

          total   stress  (Ry/bohr**3)                   (kbar)     P=    0.31
   0.00000663  -0.00000000   0.00000000          0.98     -0.00      0.00
  -0.00000000  -0.00000011   0.00000000         -0.00     -0.02      0.00
   0.00000000   0.00000000  -0.00000010          0.00      0.00     -0.02


     BFGS Geometry Optimization

     number of scf cycles    =   1
     number of bfgs steps    =   0

     energy   new            =      -2.3310569117 Ry

     new trust radius        =       0.0143310797 bohr
     new conv_thr            =       0.0000010000 Ry


ATOMIC_POSITIONS (crystal)
H       -0.000947948   0.000000000   0.000000000
H        0.093696777  -0.000000000   0.000000000



     Writing output data file H2_gas.save/
     NEW-OLD atomic charge density approx. for the potential

     negative rho (up, down):  2.598E-04 0.000E+00

     total cpu time spent up to now is      368.9 secs

     Self-consistent Calculation

     iteration #  1     ecut=    50.00 Ry     beta= 0.70
     Davidson diagonalization with overlap
     ethr =  1.00E-06,  avg # of iterations =  3.0

     negative rho (up, down):  6.156E-05 0.000E+00

     total cpu time spent up to now is      451.6 secs

     total energy              =      -2.33114615 Ry
     Harris-Foulkes estimate   =      -2.33120096 Ry
     estimated scf accuracy    <       0.00011811 Ry

     iteration #  2     ecut=    50.00 Ry     beta= 0.70
     Davidson diagonalization with overlap
     ethr =  5.91E-06,  avg # of iterations =  1.0

     negative rho (up, down):  1.327E-05 0.000E+00

     total cpu time spent up to now is      499.7 secs

     total energy              =      -2.33115709 Ry
     Harris-Foulkes estimate   =      -2.33115689 Ry
     estimated scf accuracy    <       0.00000129 Ry

     iteration #  3     ecut=    50.00 Ry     beta= 0.70
     Davidson diagonalization with overlap
     ethr =  6.44E-08,  avg # of iterations =  2.0

     negative rho (up, down):  2.709E-06 0.000E+00

     total cpu time spent up to now is      565.0 secs

     End of self-consistent calculation

     Number of k-points >= 100: set verbosity='high' to print the bands.

     highest occupied level (ev):   -10.2340

!    total energy              =      -2.33115733 Ry
     Harris-Foulkes estimate   =      -2.33115732 Ry
     estimated scf accuracy    <       0.00000006 Ry

     The total energy is the sum of the following terms:

     one-electron contribution =      -3.39565840 Ry
     hartree contribution      =       1.82385884 Ry
     xc contribution           =      -1.36766760 Ry
     ewald contribution        =       0.60830982 Ry

     convergence has been achieved in   3 iterations

     Forces acting on atoms (cartesian axes, Ry/au):

     atom    1 type  1   force =     0.00688431    0.00000000    0.00000000
     atom    2 type  1   force =    -0.00688431   -0.00000000    0.00000000

     Total force =     0.009736     Total SCF correction =     0.000051


     Computing stress (Cartesian axis) and pressure

          total   stress  (Ry/bohr**3)                   (kbar)     P=   -0.16
  -0.00000327   0.00000000   0.00000000         -0.48      0.00      0.00
   0.00000000   0.00000001  -0.00000000          0.00      0.00     -0.00
   0.00000000   0.00000000   0.00000001          0.00      0.00      0.00


     number of scf cycles    =   2
     number of bfgs steps    =   1

     energy   old            =      -2.3310569117 Ry
     energy   new            =      -2.3311573310 Ry

     CASE: energy  _new < energy  _old

     new trust radius        =       0.0046503770 bohr
     new conv_thr            =       0.0000000100 Ry


ATOMIC_POSITIONS (crystal)
H       -0.000640343   0.000000000   0.000000000
H        0.093389172  -0.000000000   0.000000000



     Writing output data file H2_gas.save/
     NEW-OLD atomic charge density approx. for the potential

     negative rho (up, down):  8.736E-05 0.000E+00

     total cpu time spent up to now is      579.6 secs

     Self-consistent Calculation

     iteration #  1     ecut=    50.00 Ry     beta= 0.70
     Davidson diagonalization with overlap
     ethr =  1.00E-06,  avg # of iterations =  2.0

     negative rho (up, down):  2.032E-05 0.000E+00

     total cpu time spent up to now is      644.9 secs

     total energy              =      -2.33118915 Ry
     Harris-Foulkes estimate   =      -2.33119511 Ry
     estimated scf accuracy    <       0.00001246 Ry

     iteration #  2     ecut=    50.00 Ry     beta= 0.70
     Davidson diagonalization with overlap
     ethr =  6.23E-07,  avg # of iterations =  1.0

     negative rho (up, down):  5.239E-06 0.000E+00

     total cpu time spent up to now is      693.0 secs

     total energy              =      -2.33119023 Ry
     Harris-Foulkes estimate   =      -2.33119022 Ry
     estimated scf accuracy    <       0.00000015 Ry

     iteration #  3     ecut=    50.00 Ry     beta= 0.70
     Davidson diagonalization with overlap
     ethr =  7.54E-09,  avg # of iterations =  2.0

     negative rho (up, down):  2.772E-06 0.000E+00

     total cpu time spent up to now is      758.2 secs

     End of self-consistent calculation

     Number of k-points >= 100: set verbosity='high' to print the bands.

     highest occupied level (ev):   -10.2557

!    total energy              =      -2.33119030 Ry
     Harris-Foulkes estimate   =      -2.33119026 Ry
     estimated scf accuracy    <          6.4E-09 Ry

     The total energy is the sum of the following terms:

     one-electron contribution =      -3.40822606 Ry
     hartree contribution      =       1.83031554 Ry
     xc contribution           =      -1.37069391 Ry
     ewald contribution        =       0.61741414 Ry

     convergence has been achieved in   3 iterations

     Forces acting on atoms (cartesian axes, Ry/au):

     atom    1 type  1   force =     0.00021523    0.00000000    0.00000000
     atom    2 type  1   force =    -0.00021523   -0.00000000    0.00000000

     Total force =     0.000304     Total SCF correction =     0.000018


     Computing stress (Cartesian axis) and pressure

          total   stress  (Ry/bohr**3)                   (kbar)     P=   -0.01
  -0.00000011  -0.00000000   0.00000000         -0.02     -0.00      0.00
  -0.00000000  -0.00000001   0.00000000         -0.00     -0.00      0.00
   0.00000000   0.00000000  -0.00000001          0.00      0.00     -0.00


     bfgs converged in   3 scf cycles and   2 bfgs steps
     (criteria: energy <  1.0E-04 Ry, force <  1.0E-03 Ry/Bohr)

     End of BFGS Geometry Optimization

     Final energy   =      -2.3311902960 Ry
Begin final coordinates

ATOMIC_POSITIONS (crystal)
H       -0.000640343   0.000000000   0.000000000
H        0.093389172  -0.000000000   0.000000000
End final coordinates



     Writing output data file H2_gas.save/
 
     init_run     :     44.07s CPU     44.71s WALL (       1 calls)
     electrons    :    679.60s CPU    684.71s WALL (       3 calls)
     update_pot   :      1.13s CPU      1.25s WALL (       2 calls)
     forces       :     17.95s CPU     18.20s WALL (       3 calls)
     stress       :     21.71s CPU     22.12s WALL (       3 calls)

     Called by init_run:
     wfcinit      :     38.90s CPU     39.24s WALL (       1 calls)
     potinit      :      0.81s CPU      0.91s WALL (       1 calls)
     hinit0       :      4.03s CPU      4.15s WALL (       1 calls)

     Called by electrons:
     c_bands      :    556.26s CPU    558.56s WALL (      11 calls)
     sum_band     :    116.46s CPU    117.74s WALL (      11 calls)
     v_of_rho     :      7.10s CPU      7.90s WALL (      14 calls)
     newd         :      0.64s CPU      0.98s WALL (      14 calls)
     mix_rho      :      0.47s CPU      0.57s WALL (      11 calls)

     Called by c_bands:
     init_us_2    :     60.97s CPU     62.33s WALL (   59189 calls)
     cegterg      :    518.07s CPU    519.57s WALL (   22451 calls)

     Called by sum_band:
     sum_band:bec :      0.08s CPU      0.09s WALL (   22451 calls)
     addusdens    :      0.32s CPU      0.63s WALL (      11 calls)

     Called by *egterg:
     h_psi        :    520.13s CPU    521.33s WALL (   65312 calls)
     s_psi        :      4.56s CPU      4.60s WALL (   65312 calls)
     g_psi        :      6.66s CPU      6.77s WALL (   40820 calls)
     cdiaghg      :      1.35s CPU      1.39s WALL (   59189 calls)

     Called by h_psi:
     h_psi:pot    :    518.11s CPU    519.25s WALL (   65312 calls)
     h_psi:calbec :      4.20s CPU      4.21s WALL (   65312 calls)
     vloc_psi     :    509.00s CPU    510.15s WALL (   65312 calls)
     add_vuspsi   :      4.58s CPU      4.62s WALL (   65312 calls)

     General routines
     calbec       :      7.20s CPU      7.24s WALL (  118378 calls)
     fft          :      2.78s CPU      2.79s WALL (     202 calls)
     ffts         :      0.09s CPU      0.09s WALL (      25 calls)
     fftw         :    525.34s CPU    526.10s WALL (  157157 calls)
     interpolate  :      0.31s CPU      0.38s WALL (      14 calls)
 
     Parallel routines
 
     PWSCF        :  12m45.74s CPU  13m10.02s WALL

 
   This run was terminated on:  22:46:48  31May2020            

=------------------------------------------------------------------------------=
   JOB DONE.
=------------------------------------------------------------------------------=
