
     Program PWSCF v.6.4.1 starts on 31May2020 at 21:54:51 

     This program is part of the open-source Quantum ESPRESSO suite
     for quantum simulation of materials; please cite
         "P. Giannozzi et al., J. Phys.:Condens. Matter 21 395502 (2009);
         "P. Giannozzi et al., J. Phys.:Condens. Matter 29 465901 (2017);
          URL http://www.quantum-espresso.org", 
     in publications or presentations arising from this work. More details at
     http://www.quantum-espresso.org/quote

     Parallel version (MPI & OpenMP), running on       1 processor cores
     Number of MPI processes:                 1
     Threads/MPI process:                     1

     MPI processes distributed on     1 nodes
     Reading input from H2_20_15.118_50.pw.in

     Current dimensions of program PWSCF are:
     Max number of different atomic species (ntypx) = 10
     Max number of k-points (npk) =  40000
     Max angular momentum in pseudopotentials (lmaxx) =  3
               file H.pbe-rrkjus.UPF: wavefunction(s)  1S renormalized

     Subspace diagonalization in iterative solution of the eigenvalue problem:
     a serial algorithm will be used

 
     G-vector sticks info
     --------------------
     sticks:   dense  smooth     PW     G-vecs:    dense   smooth      PW
     Sum        7873    3145    859               565091   142857   20621
 


     bravais-lattice index     =            4
     lattice parameter (alat)  =      15.1180  a.u.
     unit-cell volume          =    2992.3587 (a.u.)^3
     number of atoms/cell      =            2
     number of atomic types    =            1
     number of electrons       =         2.00
     number of Kohn-Sham states=            1
     kinetic-energy cutoff     =      50.0000  Ry
     charge density cutoff     =     500.0000  Ry
     convergence threshold     =      1.0E-06
     mixing beta               =       0.7000
     number of iterations used =            8  plain     mixing
     Exchange-correlation      =  SLA  PW   PBE  PBE ( 1  4  3  4 0 0)
     nstep                     =           50


     celldm(1)=  15.118000  celldm(2)=   0.000000  celldm(3)=   1.000000
     celldm(4)=   0.000000  celldm(5)=   0.000000  celldm(6)=   0.000000

     crystal axes: (cart. coord. in units of alat)
               a(1) = (   1.000000   0.000000   0.000000 )  
               a(2) = (  -0.500000   0.866025   0.000000 )  
               a(3) = (   0.000000   0.000000   1.000000 )  

     reciprocal axes: (cart. coord. in units 2 pi/alat)
               b(1) = (  1.000000  0.577350  0.000000 )  
               b(2) = (  0.000000  1.154701  0.000000 )  
               b(3) = (  0.000000  0.000000  1.000000 )  


     PseudoPot. # 1 for H  read from file:
     ./H.pbe-rrkjus.UPF
     MD5 check sum: 0433647300470310da31d564c103eed6
     Pseudo is Ultrasoft, Zval =  1.0
     Generated by new atomic code, or converted to UPF format
     Using radial grid of 1061 points,  2 beta functions with: 
                l(1) =   0
                l(2) =   0
     Q(r) pseudized with 0 coefficients 


     atomic species   valence    mass     pseudopotential
        H              1.00     1.00794     H ( 1.00)

      4 Sym. Ops. (no inversion) found



   Cartesian axes

     site n.     atom                  positions (alat units)
         1           H   tau(   1) = (   0.0000000   0.0000000   0.0000000  )
         2           H   tau(   2) = (   0.0927488   0.0000000   0.0000000  )

     number of k points=  1221

     Number of k-points >= 100: set verbosity='high' to print them.

     Dense  grid:   565091 G-vectors     FFT dimensions: ( 108, 108, 108)

     Smooth grid:   142857 G-vectors     FFT dimensions: (  72,  72,  72)

     Estimated max dynamical RAM per process >     743.13 MB

     Initial potential from superposition of free atoms

     starting charge    1.80759, renormalised to    2.00000

     negative rho (up, down):  4.503E-05 0.000E+00
     Starting wfcs are    2 randomized atomic wfcs

     total cpu time spent up to now is       27.4 secs

     Self-consistent Calculation

     iteration #  1     ecut=    50.00 Ry     beta= 0.70
     Davidson diagonalization with overlap
     ethr =  1.00E-02,  avg # of iterations =  2.0

     negative rho (up, down):  1.331E-05 0.000E+00

     total cpu time spent up to now is       67.3 secs

     total energy              =      -2.29275824 Ry
     Harris-Foulkes estimate   =      -2.70625074 Ry
     estimated scf accuracy    <       0.64205759 Ry

     iteration #  2     ecut=    50.00 Ry     beta= 0.70
     Davidson diagonalization with overlap
     ethr =  1.00E-02,  avg # of iterations =  2.0

     negative rho (up, down):  4.400E-06 0.000E+00

     total cpu time spent up to now is      106.8 secs

     total energy              =      -2.32866762 Ry
     Harris-Foulkes estimate   =      -2.33657134 Ry
     estimated scf accuracy    <       0.01660419 Ry

     iteration #  3     ecut=    50.00 Ry     beta= 0.70
     Davidson diagonalization with overlap
     ethr =  8.30E-04,  avg # of iterations =  2.0

     negative rho (up, down):  2.765E-06 0.000E+00

     total cpu time spent up to now is      146.3 secs

     total energy              =      -2.33102869 Ry
     Harris-Foulkes estimate   =      -2.33073930 Ry
     estimated scf accuracy    <       0.00076889 Ry

     iteration #  4     ecut=    50.00 Ry     beta= 0.70
     Davidson diagonalization with overlap
     ethr =  3.84E-05,  avg # of iterations =  1.0

     negative rho (up, down):  3.116E-05 0.000E+00

     total cpu time spent up to now is      175.4 secs

     total energy              =      -2.33105015 Ry
     Harris-Foulkes estimate   =      -2.33107173 Ry
     estimated scf accuracy    <       0.00004631 Ry

     iteration #  5     ecut=    50.00 Ry     beta= 0.70
     Davidson diagonalization with overlap
     ethr =  2.32E-06,  avg # of iterations =  2.0

     negative rho (up, down):  2.896E-06 0.000E+00

     total cpu time spent up to now is      214.7 secs

     End of self-consistent calculation

     Number of k-points >= 100: set verbosity='high' to print the bands.

     highest occupied level (ev):   -10.3007

!    total energy              =      -2.33105691 Ry
     Harris-Foulkes estimate   =      -2.33105715 Ry
     estimated scf accuracy    <       0.00000034 Ry

     The total energy is the sum of the following terms:

     one-electron contribution =      -3.43453788 Ry
     hartree contribution      =       1.84368783 Ry
     xc contribution           =      -1.37696351 Ry
     ewald contribution        =       0.63675665 Ry

     convergence has been achieved in   5 iterations

     Forces acting on atoms (cartesian axes, Ry/au):

     atom    1 type  1   force =    -0.01433109   -0.00000000    0.00000000
     atom    2 type  1   force =     0.01433109    0.00000000    0.00000000

     Total force =     0.020267     Total SCF correction =     0.000102


     Computing stress (Cartesian axis) and pressure

          total   stress  (Ry/bohr**3)                   (kbar)     P=    0.31
   0.00000663   0.00000000   0.00000000          0.98      0.00      0.00
   0.00000000  -0.00000011  -0.00000000          0.00     -0.02     -0.00
   0.00000000  -0.00000000  -0.00000010          0.00     -0.00     -0.02


     BFGS Geometry Optimization

     number of scf cycles    =   1
     number of bfgs steps    =   0

     energy   new            =      -2.3310569120 Ry

     new trust radius        =       0.0143310919 bohr
     new conv_thr            =       0.0000010000 Ry


ATOMIC_POSITIONS (crystal)
H       -0.000947949  -0.000000000   0.000000000
H        0.093696778   0.000000000   0.000000000



     Writing output data file H2_gas.save/
     NEW-OLD atomic charge density approx. for the potential

     negative rho (up, down):  2.598E-04 0.000E+00

     total cpu time spent up to now is      224.3 secs

     Self-consistent Calculation

     iteration #  1     ecut=    50.00 Ry     beta= 0.70
     Davidson diagonalization with overlap
     ethr =  1.00E-06,  avg # of iterations =  3.0

     negative rho (up, down):  6.156E-05 0.000E+00

     total cpu time spent up to now is      274.1 secs

     total energy              =      -2.33114615 Ry
     Harris-Foulkes estimate   =      -2.33120096 Ry
     estimated scf accuracy    <       0.00011811 Ry

     iteration #  2     ecut=    50.00 Ry     beta= 0.70
     Davidson diagonalization with overlap
     ethr =  5.91E-06,  avg # of iterations =  1.0

     negative rho (up, down):  1.327E-05 0.000E+00

     total cpu time spent up to now is      303.2 secs

     total energy              =      -2.33115709 Ry
     Harris-Foulkes estimate   =      -2.33115689 Ry
     estimated scf accuracy    <       0.00000129 Ry

     iteration #  3     ecut=    50.00 Ry     beta= 0.70
     Davidson diagonalization with overlap
     ethr =  6.44E-08,  avg # of iterations =  2.0

     negative rho (up, down):  2.709E-06 0.000E+00

     total cpu time spent up to now is      342.6 secs

     End of self-consistent calculation

     Number of k-points >= 100: set verbosity='high' to print the bands.

     highest occupied level (ev):   -10.2340

!    total energy              =      -2.33115733 Ry
     Harris-Foulkes estimate   =      -2.33115732 Ry
     estimated scf accuracy    <       0.00000006 Ry

     The total energy is the sum of the following terms:

     one-electron contribution =      -3.39565837 Ry
     hartree contribution      =       1.82385883 Ry
     xc contribution           =      -1.36766759 Ry
     ewald contribution        =       0.60830980 Ry

     convergence has been achieved in   3 iterations

     Forces acting on atoms (cartesian axes, Ry/au):

     atom    1 type  1   force =     0.00688432    0.00000000    0.00000000
     atom    2 type  1   force =    -0.00688432   -0.00000000    0.00000000

     Total force =     0.009736     Total SCF correction =     0.000051


     Computing stress (Cartesian axis) and pressure

          total   stress  (Ry/bohr**3)                   (kbar)     P=   -0.16
  -0.00000327   0.00000000   0.00000000         -0.48      0.00      0.00
   0.00000000   0.00000001   0.00000000          0.00      0.00      0.00
   0.00000000   0.00000000   0.00000001          0.00      0.00      0.00


     number of scf cycles    =   2
     number of bfgs steps    =   1

     energy   old            =      -2.3310569120 Ry
     energy   new            =      -2.3311573311 Ry

     CASE: energy  _new < energy  _old

     new trust radius        =       0.0046503863 bohr
     new conv_thr            =       0.0000000100 Ry


ATOMIC_POSITIONS (crystal)
H       -0.000640343   0.000000000   0.000000000
H        0.093389172   0.000000000   0.000000000



     Writing output data file H2_gas.save/
     NEW-OLD atomic charge density approx. for the potential

     negative rho (up, down):  8.736E-05 0.000E+00

     total cpu time spent up to now is      352.1 secs

     Self-consistent Calculation

     iteration #  1     ecut=    50.00 Ry     beta= 0.70
     Davidson diagonalization with overlap
     ethr =  1.00E-06,  avg # of iterations =  2.0

     negative rho (up, down):  2.032E-05 0.000E+00

     total cpu time spent up to now is      391.5 secs

     total energy              =      -2.33118915 Ry
     Harris-Foulkes estimate   =      -2.33119511 Ry
     estimated scf accuracy    <       0.00001246 Ry

     iteration #  2     ecut=    50.00 Ry     beta= 0.70
     Davidson diagonalization with overlap
     ethr =  6.23E-07,  avg # of iterations =  1.0

     negative rho (up, down):  5.239E-06 0.000E+00

     total cpu time spent up to now is      420.6 secs

     total energy              =      -2.33119023 Ry
     Harris-Foulkes estimate   =      -2.33119022 Ry
     estimated scf accuracy    <       0.00000015 Ry

     iteration #  3     ecut=    50.00 Ry     beta= 0.70
     Davidson diagonalization with overlap
     ethr =  7.54E-09,  avg # of iterations =  2.0

     negative rho (up, down):  2.772E-06 0.000E+00

     total cpu time spent up to now is      460.0 secs

     End of self-consistent calculation

     Number of k-points >= 100: set verbosity='high' to print the bands.

     highest occupied level (ev):   -10.2557

!    total energy              =      -2.33119030 Ry
     Harris-Foulkes estimate   =      -2.33119026 Ry
     estimated scf accuracy    <          6.4E-09 Ry

     The total energy is the sum of the following terms:

     one-electron contribution =      -3.40822606 Ry
     hartree contribution      =       1.83031554 Ry
     xc contribution           =      -1.37069391 Ry
     ewald contribution        =       0.61741413 Ry

     convergence has been achieved in   3 iterations

     Forces acting on atoms (cartesian axes, Ry/au):

     atom    1 type  1   force =     0.00021524   -0.00000000    0.00000000
     atom    2 type  1   force =    -0.00021524    0.00000000    0.00000000

     Total force =     0.000304     Total SCF correction =     0.000018


     Computing stress (Cartesian axis) and pressure

          total   stress  (Ry/bohr**3)                   (kbar)     P=   -0.01
  -0.00000011  -0.00000000   0.00000000         -0.02     -0.00      0.00
   0.00000000  -0.00000001   0.00000000          0.00     -0.00      0.00
   0.00000000   0.00000000  -0.00000001          0.00      0.00     -0.00


     bfgs converged in   3 scf cycles and   2 bfgs steps
     (criteria: energy <  1.0E-04 Ry, force <  1.0E-03 Ry/Bohr)

     End of BFGS Geometry Optimization

     Final energy   =      -2.3311902962 Ry
Begin final coordinates

ATOMIC_POSITIONS (crystal)
H       -0.000640343   0.000000000   0.000000000
H        0.093389172   0.000000000   0.000000000
End final coordinates



     Writing output data file H2_gas.save/
 
     init_run     :     26.92s CPU     27.38s WALL (       1 calls)
     electrons    :    410.62s CPU    414.16s WALL (       3 calls)
     update_pot   :      1.13s CPU      1.26s WALL (       2 calls)
     forces       :     10.94s CPU     11.15s WALL (       3 calls)
     stress       :     13.54s CPU     13.88s WALL (       3 calls)

     Called by init_run:
     wfcinit      :     23.35s CPU     23.58s WALL (       1 calls)
     potinit      :      0.80s CPU      0.89s WALL (       1 calls)
     hinit0       :      2.47s CPU      2.53s WALL (       1 calls)

     Called by electrons:
     c_bands      :    333.52s CPU    334.77s WALL (      11 calls)
     sum_band     :     70.27s CPU     71.01s WALL (      11 calls)
     v_of_rho     :      7.07s CPU      7.84s WALL (      14 calls)
     newd         :      0.64s CPU      0.97s WALL (      14 calls)
     mix_rho      :      0.46s CPU      0.54s WALL (      11 calls)

     Called by c_bands:
     init_us_2    :     36.55s CPU     37.23s WALL (   35409 calls)
     cegterg      :    310.70s CPU    311.53s WALL (   13431 calls)

     Called by sum_band:
     sum_band:bec :      0.05s CPU      0.06s WALL (   13431 calls)
     addusdens    :      0.31s CPU      0.58s WALL (      11 calls)

     Called by *egterg:
     h_psi        :    311.77s CPU    312.44s WALL (   39072 calls)
     s_psi        :      2.77s CPU      2.80s WALL (   39072 calls)
     g_psi        :      3.99s CPU      4.05s WALL (   24420 calls)
     cdiaghg      :      0.84s CPU      0.86s WALL (   35409 calls)

     Called by h_psi:
     h_psi:pot    :    310.56s CPU    311.20s WALL (   39072 calls)
     h_psi:calbec :      2.53s CPU      2.54s WALL (   39072 calls)
     vloc_psi     :    305.06s CPU    305.69s WALL (   39072 calls)
     add_vuspsi   :      2.77s CPU      2.80s WALL (   39072 calls)

     General routines
     calbec       :      4.25s CPU      4.27s WALL (   70818 calls)
     fft          :      2.78s CPU      2.79s WALL (     202 calls)
     ffts         :      0.09s CPU      0.09s WALL (      25 calls)
     fftw         :    315.12s CPU    315.55s WALL (   94017 calls)
     interpolate  :      0.31s CPU      0.37s WALL (      14 calls)
 
     Parallel routines
 
     PWSCF        :   7m43.89s CPU   7m59.60s WALL

 
   This run was terminated on:  22: 2:51  31May2020            

=------------------------------------------------------------------------------=
   JOB DONE.
=------------------------------------------------------------------------------=
