--------------------------------------------------------------------------
[[3016,1],0]: A high-performance Open MPI point-to-point messaging module
was unable to find any relevant network interfaces:

Module: OpenFabrics (openib)
  Host: ubuntu

Another transport will be used instead, although this may result in
lower performance.
--------------------------------------------------------------------------

     Program PWSCF v.5.1 starts on 27May2020 at  1:27: 8 

     This program is part of the open-source Quantum ESPRESSO suite
     for quantum simulation of materials; please cite
         "P. Giannozzi et al., J. Phys.:Condens. Matter 21 395502 (2009);
          URL http://www.quantum-espresso.org", 
     in publications or presentations arising from this work. More details at
     http://www.quantum-espresso.org/quote

     Parallel version (MPI), running on     1 processors
     Reading input from Al_100_bulk_14.pw.in

     Current dimensions of program PWSCF are:
     Max number of different atomic species (ntypx) = 10
     Max number of k-points (npk) =  40000
     Max angular momentum in pseudopotentials (lmaxx) =  3

     Subspace diagonalization in iterative solution of the eigenvalue problem:
     a serial algorithm will be used

     Found symmetry operation: I + ( -0.5000 -0.5000  0.0000)
     This is a supercell, fractional translations are disabled

     G-vector sticks info
     --------------------
     sticks:   dense  smooth     PW     G-vecs:    dense   smooth      PW
     Sum         681     553    177                95431    68369   11655



     bravais-lattice index     =            6
     lattice parameter (alat)  =       7.6050  a.u.
     unit-cell volume          =    3078.9008 (a.u.)^3
     number of atoms/cell      =           16
     number of atomic types    =            1
     number of electrons       =        48.00
     number of Kohn-Sham states=           29
     kinetic-energy cutoff     =      30.0000  Ry
     charge density cutoff     =     150.0000  Ry
     convergence threshold     =      1.0E-06
     mixing beta               =       0.3000
     number of iterations used =            8  local-TF  mixing
     Exchange-correlation      =  SLA  PW   PBE  PBE ( 1  4  3  4 0)
     nstep                     =           50


     celldm(1)=   7.605000  celldm(2)=   0.000000  celldm(3)=   7.000000
     celldm(4)=   0.000000  celldm(5)=   0.000000  celldm(6)=   0.000000

     crystal axes: (cart. coord. in units of alat)
               a(1) = (   1.000000   0.000000   0.000000 )  
               a(2) = (   0.000000   1.000000   0.000000 )  
               a(3) = (   0.000000   0.000000   7.000000 )  

     reciprocal axes: (cart. coord. in units 2 pi/alat)
               b(1) = (  1.000000  0.000000  0.000000 )  
               b(2) = (  0.000000  1.000000  0.000000 )  
               b(3) = (  0.000000  0.000000  0.142857 )  


     PseudoPot. # 1 for Al read from file:
     ./Al.pbe-n-van.UPF
     MD5 check sum: b11ded24487aef5bc42d5c7a2e22a7b6
     Pseudo is Ultrasoft + core correction, Zval =  3.0
     Generated by new atomic code, or converted to UPF format
     Using radial grid of  893 points,  2 beta functions with: 
                l(1) =   0
                l(2) =   1
     Q(r) pseudized with  8 coefficients,  rinner =    0.900   0.900   0.900


     atomic species   valence    mass     pseudopotential
        Al             3.00    26.98000     Al( 1.00)

      8 Sym. Ops. (no inversion) found



   Cartesian axes

     site n.     atom                  positions (alat units)
         1           Al  tau(   1) = (   0.0000000   0.0000000   0.0000000  )
         2           Al  tau(   2) = (   0.5000000   0.5000000   0.0000000  )
         3           Al  tau(   3) = (   0.5000000   0.0000000   0.5000000  )
         4           Al  tau(   4) = (   0.0000000   0.5000000   0.5000000  )
         5           Al  tau(   5) = (   0.0000000   0.0000000   1.0000000  )
         6           Al  tau(   6) = (   0.5000000   0.5000000   1.0000000  )
         7           Al  tau(   7) = (   0.5000000   0.0000000   1.5000000  )
         8           Al  tau(   8) = (   0.0000000   0.5000000   1.5000000  )
         9           Al  tau(   9) = (   0.0000000   0.0000000   2.0000000  )
        10           Al  tau(  10) = (   0.5000000   0.5000000   2.0000000  )
        11           Al  tau(  11) = (   0.5000000   0.0000000   2.5000000  )
        12           Al  tau(  12) = (   0.0000000   0.5000000   2.5000000  )
        13           Al  tau(  13) = (   0.0000000   0.0000000   3.0000000  )
        14           Al  tau(  14) = (   0.5000000   0.5000000   3.0000000  )
        15           Al  tau(  15) = (   0.5000000   0.0000000   3.5000000  )
        16           Al  tau(  16) = (   0.0000000   0.5000000   3.5000000  )

     number of k points=    45  Marzari-Vanderbilt smearing, width (Ry)=  0.0250
                       cart. coord. in units 2pi/alat
        k(    1) = (   0.0000000   0.0000000   0.0000000), wk =   0.0078125
        k(    2) = (   0.0000000   0.0625000   0.0000000), wk =   0.0312500
        k(    3) = (   0.0000000   0.1250000   0.0000000), wk =   0.0312500
        k(    4) = (   0.0000000   0.1875000   0.0000000), wk =   0.0312500
        k(    5) = (   0.0000000   0.2500000   0.0000000), wk =   0.0312500
        k(    6) = (   0.0000000   0.3125000   0.0000000), wk =   0.0312500
        k(    7) = (   0.0000000   0.3750000   0.0000000), wk =   0.0312500
        k(    8) = (   0.0000000   0.4375000   0.0000000), wk =   0.0312500
        k(    9) = (   0.0000000  -0.5000000   0.0000000), wk =   0.0156250
        k(   10) = (   0.0625000   0.0625000   0.0000000), wk =   0.0312500
        k(   11) = (   0.0625000   0.1250000   0.0000000), wk =   0.0625000
        k(   12) = (   0.0625000   0.1875000   0.0000000), wk =   0.0625000
        k(   13) = (   0.0625000   0.2500000   0.0000000), wk =   0.0625000
        k(   14) = (   0.0625000   0.3125000   0.0000000), wk =   0.0625000
        k(   15) = (   0.0625000   0.3750000   0.0000000), wk =   0.0625000
        k(   16) = (   0.0625000   0.4375000   0.0000000), wk =   0.0625000
        k(   17) = (   0.0625000  -0.5000000   0.0000000), wk =   0.0312500
        k(   18) = (   0.1250000   0.1250000   0.0000000), wk =   0.0312500
        k(   19) = (   0.1250000   0.1875000   0.0000000), wk =   0.0625000
        k(   20) = (   0.1250000   0.2500000   0.0000000), wk =   0.0625000
        k(   21) = (   0.1250000   0.3125000   0.0000000), wk =   0.0625000
        k(   22) = (   0.1250000   0.3750000   0.0000000), wk =   0.0625000
        k(   23) = (   0.1250000   0.4375000   0.0000000), wk =   0.0625000
        k(   24) = (   0.1250000  -0.5000000   0.0000000), wk =   0.0312500
        k(   25) = (   0.1875000   0.1875000   0.0000000), wk =   0.0312500
        k(   26) = (   0.1875000   0.2500000   0.0000000), wk =   0.0625000
        k(   27) = (   0.1875000   0.3125000   0.0000000), wk =   0.0625000
        k(   28) = (   0.1875000   0.3750000   0.0000000), wk =   0.0625000
        k(   29) = (   0.1875000   0.4375000   0.0000000), wk =   0.0625000
        k(   30) = (   0.1875000  -0.5000000   0.0000000), wk =   0.0312500
        k(   31) = (   0.2500000   0.2500000   0.0000000), wk =   0.0312500
        k(   32) = (   0.2500000   0.3125000   0.0000000), wk =   0.0625000
        k(   33) = (   0.2500000   0.3750000   0.0000000), wk =   0.0625000
        k(   34) = (   0.2500000   0.4375000   0.0000000), wk =   0.0625000
        k(   35) = (   0.2500000  -0.5000000   0.0000000), wk =   0.0312500
        k(   36) = (   0.3125000   0.3125000   0.0000000), wk =   0.0312500
        k(   37) = (   0.3125000   0.3750000   0.0000000), wk =   0.0625000
        k(   38) = (   0.3125000   0.4375000   0.0000000), wk =   0.0625000
        k(   39) = (   0.3125000  -0.5000000   0.0000000), wk =   0.0312500
        k(   40) = (   0.3750000   0.3750000   0.0000000), wk =   0.0312500
        k(   41) = (   0.3750000   0.4375000   0.0000000), wk =   0.0625000
        k(   42) = (   0.3750000  -0.5000000   0.0000000), wk =   0.0312500
        k(   43) = (   0.4375000   0.4375000   0.0000000), wk =   0.0312500
        k(   44) = (   0.4375000  -0.5000000   0.0000000), wk =   0.0312500
        k(   45) = (  -0.5000000  -0.5000000   0.0000000), wk =   0.0078125

     Dense  grid:    95431 G-vectors     FFT dimensions: (  30,  30, 216)

     Smooth grid:    68369 G-vectors     FFT dimensions: (  27,  27, 192)

     Largest allocated arrays     est. size (Mb)     dimensions
        Kohn-Sham Wavefunctions         3.81 Mb     (    8599,   29)
        NL pseudopotentials             8.40 Mb     (    8599,   64)
        Each V/rho on FFT grid          2.97 Mb     (  194400)
        Each G-vector array             0.73 Mb     (   95431)
        G-vector shells                 0.03 Mb     (    3463)
     Largest temporary arrays     est. size (Mb)     dimensions
        Auxiliary wavefunctions        15.22 Mb     (    8599,  116)
        Each subspace H/S matrix        0.21 Mb     (     116,  116)
        Each <psi_i|beta_j> matrix      0.03 Mb     (      64,   29)
        Arrays for rho mixing          23.73 Mb     (  194400,    8)

     Initial potential from superposition of free atoms

     starting charge   47.96055, renormalised to   48.00000

     negative rho (up, down):  2.709E-05 0.000E+00
     Starting wfc are   64 randomized atomic wfcs

     total cpu time spent up to now is       45.8 secs

     per-process dynamical memory:   224.9 Mb

     Self-consistent Calculation

     iteration #  1     ecut=    30.00 Ry     beta=0.30
     Davidson diagonalization with overlap
     ethr =  1.00E-02,  avg # of iterations =  2.7

     total cpu time spent up to now is      119.0 secs

     total energy              =    -199.38099986 Ry
     Harris-Foulkes estimate   =    -199.42767361 Ry
     estimated scf accuracy    <       1.38207488 Ry

     iteration #  2     ecut=    30.00 Ry     beta=0.30
     Davidson diagonalization with overlap
     ethr =  2.88E-03,  avg # of iterations =  1.0

     negative rho (up, down):  5.212E-05 0.000E+00

     total cpu time spent up to now is      163.1 secs

     total energy              =    -199.21650056 Ry
     Harris-Foulkes estimate   =    -199.39247535 Ry
     estimated scf accuracy    <       1.03941766 Ry

     iteration #  3     ecut=    30.00 Ry     beta=0.30
     Davidson diagonalization with overlap
     ethr =  2.17E-03,  avg # of iterations =  2.0

     total cpu time spent up to now is      212.4 secs

     total energy              =    -199.28950360 Ry
     Harris-Foulkes estimate   =    -199.33961543 Ry
     estimated scf accuracy    <       0.36797016 Ry

     iteration #  4     ecut=    30.00 Ry     beta=0.30
     Davidson diagonalization with overlap
     ethr =  7.67E-04,  avg # of iterations =  2.0

     total cpu time spent up to now is      259.0 secs

     total energy              =    -199.31203779 Ry
     Harris-Foulkes estimate   =    -199.31268012 Ry
     estimated scf accuracy    <       0.02062798 Ry

     iteration #  5     ecut=    30.00 Ry     beta=0.30
     Davidson diagonalization with overlap
     ethr =  4.30E-05,  avg # of iterations =  4.0

     total cpu time spent up to now is      314.6 secs

     total energy              =    -199.30703715 Ry
     Harris-Foulkes estimate   =    -199.31401078 Ry
     estimated scf accuracy    <       0.02516282 Ry

     iteration #  6     ecut=    30.00 Ry     beta=0.30
     Davidson diagonalization with overlap
     ethr =  4.30E-05,  avg # of iterations =  2.9

     total cpu time spent up to now is      366.8 secs

     total energy              =    -199.31014776 Ry
     Harris-Foulkes estimate   =    -199.30997496 Ry
     estimated scf accuracy    <       0.08294072 Ry

     iteration #  7     ecut=    30.00 Ry     beta=0.30
     Davidson diagonalization with overlap
     ethr =  4.30E-05,  avg # of iterations =  1.0

     negative rho (up, down):  9.295E-03 0.000E+00

     total cpu time spent up to now is      411.5 secs

     total energy              =    -199.30223581 Ry
     Harris-Foulkes estimate   =    -199.31025717 Ry
     estimated scf accuracy    <       0.07862289 Ry

     iteration #  8     ecut=    30.00 Ry     beta=0.30
     Davidson diagonalization with overlap
     ethr =  4.30E-05,  avg # of iterations =  2.6

     negative rho (up, down):  4.912E-03 0.000E+00

     total cpu time spent up to now is      461.7 secs

     total energy              =    -199.30622583 Ry
     Harris-Foulkes estimate   =    -199.30598101 Ry
     estimated scf accuracy    <       0.00205583 Ry

     iteration #  9     ecut=    30.00 Ry     beta=0.30
     Davidson diagonalization with overlap
     ethr =  4.28E-06,  avg # of iterations =  4.0

     negative rho (up, down):  5.713E-03 0.000E+00

     total cpu time spent up to now is      519.4 secs

     total energy              =    -199.30644533 Ry
     Harris-Foulkes estimate   =    -199.30651790 Ry
     estimated scf accuracy    <       0.01035409 Ry

     iteration # 10     ecut=    30.00 Ry     beta=0.30
     Davidson diagonalization with overlap
     ethr =  4.28E-06,  avg # of iterations =  2.4

     negative rho (up, down):  4.257E-03 0.000E+00

     total cpu time spent up to now is      574.4 secs

     total energy              =    -199.30672257 Ry
     Harris-Foulkes estimate   =    -199.30687055 Ry
     estimated scf accuracy    <       0.01445066 Ry

     iteration # 11     ecut=    30.00 Ry     beta=0.30
     Davidson diagonalization with overlap
     ethr =  4.28E-06,  avg # of iterations =  1.0

     total cpu time spent up to now is      618.7 secs

     total energy              =    -199.30570503 Ry
     Harris-Foulkes estimate   =    -199.30674126 Ry
     estimated scf accuracy    <       0.01169616 Ry

     iteration # 12     ecut=    30.00 Ry     beta=0.30
     Davidson diagonalization with overlap
     ethr =  4.28E-06,  avg # of iterations =  3.0

     total cpu time spent up to now is      671.8 secs

     total energy              =    -199.30617656 Ry
     Harris-Foulkes estimate   =    -199.30617704 Ry
     estimated scf accuracy    <       0.00005955 Ry

     iteration # 13     ecut=    30.00 Ry     beta=0.30
     Davidson diagonalization with overlap
     ethr =  1.24E-07,  avg # of iterations =  3.5

     total cpu time spent up to now is      721.8 secs

     total energy              =    -199.30618287 Ry
     Harris-Foulkes estimate   =    -199.30618327 Ry
     estimated scf accuracy    <       0.00003022 Ry

     iteration # 14     ecut=    30.00 Ry     beta=0.30
     Davidson diagonalization with overlap
     ethr =  6.30E-08,  avg # of iterations =  1.7

     total cpu time spent up to now is      766.3 secs

     total energy              =    -199.30618453 Ry
     Harris-Foulkes estimate   =    -199.30618379 Ry
     estimated scf accuracy    <       0.00000545 Ry

     iteration # 15     ecut=    30.00 Ry     beta=0.30
     Davidson diagonalization with overlap
     ethr =  1.14E-08,  avg # of iterations =  3.4

     total cpu time spent up to now is      822.6 secs

     total energy              =    -199.30618537 Ry
     Harris-Foulkes estimate   =    -199.30618579 Ry
     estimated scf accuracy    <       0.00000604 Ry

     iteration # 16     ecut=    30.00 Ry     beta=0.30
     Davidson diagonalization with overlap
     ethr =  1.14E-08,  avg # of iterations =  1.2

     total cpu time spent up to now is      866.8 secs

     total energy              =    -199.30618542 Ry
     Harris-Foulkes estimate   =    -199.30618550 Ry
     estimated scf accuracy    <       0.00000142 Ry

     iteration # 17     ecut=    30.00 Ry     beta=0.30
     Davidson diagonalization with overlap
     ethr =  2.97E-09,  avg # of iterations =  2.9

     total cpu time spent up to now is      914.7 secs

     End of self-consistent calculation

          k = 0.0000 0.0000 0.0000 (  8589 PWs)   bands (ev):

    -8.3039  -7.9056  -7.2620  -6.3677  -5.2480  -3.9195  -2.3911  -0.6139
    -0.0203  -0.0203   0.3458   0.3458   0.4724   0.9387   0.9387   1.3415
     1.3415   1.7206   1.7206   1.7675   1.7675   2.3192   2.3192   2.8133
     2.8133   2.8865   3.2623   3.2623   4.0660

          k = 0.0000 0.0625 0.0000 (  8573 PWs)   bands (ev):

    -8.2682  -7.8699  -7.2264  -6.3323  -5.2129  -3.8847  -2.3566  -0.5921
    -0.5797  -0.2189   0.0127   0.3789   0.3839   0.5055   0.9717   1.2172
     1.3804   1.7473   1.8005   1.9768   2.2905   2.2969   2.4337   2.8463
     2.8836   2.9195   3.3904   3.5692   3.7885

          k = 0.0000 0.1250 0.0000 (  8579 PWs)   bands (ev):

    -8.1609  -7.7629  -7.1198  -6.2263  -5.1075  -3.7801  -2.2530  -1.4970
    -1.1177  -0.5062  -0.4766   0.1109   0.3425   0.4772   0.6050   1.0703
     1.3880   1.4782   1.8948   1.8990   2.4110   2.8043   2.9448   3.0182
     3.0574   3.3539   3.4239   4.0805   4.1974

          k = 0.0000 0.1875 0.0000 (  8599 PWs)   bands (ev):

    -7.9822  -7.5847  -6.9423  -6.0498  -4.9322  -3.6062  -2.3972  -2.0807
    -2.0136  -1.3957  -0.5373  -0.3055   0.2749   0.5341   0.6416   0.7704
     1.2346   1.6154   1.8318   2.0383   2.0633   2.7322   3.1088   3.1810
     3.3206   3.5678   4.2641   4.3612   4.4534

          k = 0.0000 0.2500 0.0000 (  8583 PWs)   bands (ev):

    -7.7325  -7.3356  -6.6942  -5.8030  -4.6870  -3.3627  -3.2486  -2.8628
    -2.2397  -1.8397  -1.3743  -0.2923  -0.0666   0.5053   0.8717   0.9825
     1.0023   1.4644   1.8943   2.1700   2.2929   2.6283   2.9544   3.3382
     3.4042   3.7980   4.2008   4.5900   4.7114

          k = 0.0000 0.3125 0.0000 (  8545 PWs)   bands (ev):

    -7.4120  -7.0159  -6.3758  -5.4863  -4.3724  -4.0407  -3.6527  -3.0506
    -3.0261  -2.1558  -1.5305  -1.0661   0.2236   0.2397   0.8005   1.1671
     1.2996   1.6786   1.7598   2.1754   2.5886   2.6686   3.2474   3.5193
     3.6335   3.6769   3.9553   4.0684   4.3214

          k = 0.0000 0.3750 0.0000 (  8532 PWs)   bands (ev):

    -7.0211  -6.6260  -5.9875  -5.1002  -4.7703  -4.3806  -3.9888  -3.7510
    -2.8758  -2.6703  -1.7803  -1.1541  -0.4820   0.6119   1.0026   1.1622
     1.5288   1.6628   2.1216   2.4154   2.9502   2.9516   3.0165   3.2651
     3.6314   3.6316   3.7407   3.9495   3.9947

          k = 0.0000 0.4375 0.0000 (  8540 PWs)   bands (ev):

    -6.5608  -6.1667  -5.5301  -5.4343  -5.0430  -4.6453  -4.4109  -3.5370
    -3.5321  -2.4314  -2.2219  -1.1263  -0.7108   0.3705   1.0476   1.5890
     1.9556   2.0761   2.0908   2.5484   2.6405   3.0070   3.0912   3.1361
     3.3768   3.4440   3.5994   3.9365   4.0620

          k = 0.0000-0.5000 0.0000 (  8538 PWs)   bands (ev):

    -6.0315  -6.0315  -5.6388  -5.6388  -5.0043  -5.0043  -4.1222  -4.1222
    -3.0172  -3.0172  -1.7070  -1.7070  -0.2021  -0.2021   1.5424   1.5424
     2.0819   2.0819   2.4485   2.4485   2.5826   2.5826   3.0410   3.0410
     3.5249   3.5249   3.8692   3.8692   3.9336

          k = 0.0625 0.0625 0.0000 (  8583 PWs)   bands (ev):

    -8.2323  -7.8342  -7.1909  -6.2970  -5.1778  -3.8498  -2.3221  -0.5589
    -0.5589  -0.5454  -0.1858  -0.1858   0.4165   0.4165   0.5386   1.2593
     1.2593   2.0084   2.0084   2.2688   2.2688   2.4367   2.4367   2.9522
     2.9744   2.9744   3.6117   3.6117   3.8998

          k = 0.0625 0.1250 0.0000 (  8586 PWs)   bands (ev):

    -8.1251  -7.7272  -7.0843  -6.1910  -5.0725  -3.7454  -2.2187  -1.4630
    -1.0845  -0.4739  -0.4588  -0.4426  -0.0846   0.3578   0.5412   0.6380
     1.3260   1.4834   2.1044   2.4154   2.4961   2.6881   3.0500   3.0913
     3.1684   3.4774   3.6468   3.8803   4.2028

          k = 0.0625 0.1875 0.0000 (  8596 PWs)   bands (ev):

    -7.9465  -7.5491  -6.9069  -6.0145  -4.8972  -3.5714  -2.3627  -2.0464
    -1.9796  -1.3621  -0.5056  -0.2909  -0.2716   0.0773   0.5755   0.6880
     0.8034   1.5368   1.8389   2.2899   2.5895   2.6352   3.2097   3.3152
     3.3746   3.8483   4.1330   4.3106   4.6303

          k = 0.0625 0.2500 0.0000 (  8569 PWs)   bands (ev):

    -7.6968  -7.3000  -6.6588  -5.7678  -4.6520  -3.3279  -3.2138  -2.8279
    -2.2053  -1.8053  -1.3407  -0.2621  -0.0588  -0.0326   0.3211   0.8837
     1.0352   1.0690   1.7662   2.4476   2.5077   2.8195   2.9986   3.4168
     3.5463   4.0746   4.2353   4.2658   4.3757

          k = 0.0625 0.3125 0.0000 (  8533 PWs)   bands (ev):

    -7.3764  -6.9803  -6.3404  -5.4512  -4.3375  -4.0060  -3.6181  -3.0159
    -2.9917  -2.1216  -1.4961  -1.0327   0.2100   0.2733   0.2883   0.6145
     1.2306   1.3326   1.7399   2.0683   2.7671   3.1081   3.2510   3.3646
     3.5787   3.7934   3.8186   3.8580   4.2979

          k = 0.0625 0.3750 0.0000 (  8531 PWs)   bands (ev):

    -6.9857  -6.5906  -5.9523  -5.0652  -4.7354  -4.3457  -3.9541  -3.7162
    -2.8414  -2.6357  -1.7462  -1.1199  -0.4492   0.6084   0.6442   0.9208
     1.1106   1.5926   1.6954   2.4294   2.7045   2.7307   3.1076   3.2969
     3.5020   3.6082   3.7047   3.7816   4.0937

          k = 0.0625 0.4375 0.0000 (  8517 PWs)   bands (ev):

    -6.5254  -6.1315  -5.4950  -5.3992  -5.0080  -4.6103  -4.3760  -3.5022
    -3.4974  -2.3970  -2.1874  -1.0927  -0.6768   0.4005   1.0353   1.0757
     1.4283   2.0193   2.1170   2.1225   2.1580   2.4827   2.8504   3.0820
     3.1828   3.6523   3.9198   3.9199   4.0331

          k = 0.0625-0.5000 0.0000 (  8546 PWs)   bands (ev):

    -5.9963  -5.9963  -5.6036  -5.6036  -4.9692  -4.9692  -4.0874  -4.0873
    -2.9827  -2.9827  -1.6727  -1.6727  -0.1691  -0.1691   1.4504   1.4504
     1.6803   1.6803   1.9215   1.9215   2.5212   2.5212   2.6114   2.6114
     3.3630   3.3630   4.0799   4.0800   4.4096

          k = 0.1250 0.1250 0.0000 (  8581 PWs)   bands (ev):

    -8.0179  -7.6203  -6.9778  -6.0851  -4.9673  -3.6410  -2.1154  -1.3617
    -1.3617  -0.9837  -0.9837  -0.3739  -0.3739  -0.3401   0.4855   0.4855
     0.7371   1.5581   1.5581   2.8050   2.8050   3.1432   3.2035   3.2035
     3.5516   3.5516   4.1909   4.1909   4.3286

          k = 0.1250 0.1875 0.0000 (  8562 PWs)   bands (ev):

    -7.8394  -7.4423  -6.8005  -5.9087  -4.7920  -3.4669  -2.2595  -1.9430
    -1.8775  -1.2620  -1.1923  -0.8132  -0.4238  -0.1750  -0.1694   0.5878
     0.7521   0.9027   1.7176   1.9639   2.9680   3.2826   3.3568   3.3826
     3.8351   4.2067   4.3568   4.3822   4.4613

          k = 0.1250 0.2500 0.0000 (  8568 PWs)   bands (ev):

    -7.5900  -7.1934  -6.5526  -5.6622  -4.5471  -3.2238  -3.1102  -2.7246
    -2.1030  -1.7023  -1.2414  -0.9545  -0.5853  -0.1471   0.0372   0.0686
     0.8982   1.1341   1.1388   1.9606   2.5896   3.2130   3.2384   3.5574
     3.6843   3.6945   4.0163   4.2985   4.3242

          k = 0.1250 0.3125 0.0000 (  8539 PWs)   bands (ev):

    -7.2698  -6.8739  -6.2345  -5.3458  -4.2327  -3.9019  -3.5144  -2.9120
    -2.8885  -2.0193  -1.3936  -0.9351  -0.6521  -0.2662   0.2672   0.3727
     0.4462   1.1949   1.4309   1.8527   2.2556   2.5530   2.9378   3.4981
     3.5190   3.5371   3.9038   4.0094   4.3054

          k = 0.1250 0.3750 0.0000 (  8523 PWs)   bands (ev):

    -6.8793  -6.4845  -5.8466  -4.9601  -4.6306  -4.2412  -3.8496  -3.6122
    -2.7381  -2.5320  -1.6444  -1.0177  -0.3719  -0.2575   0.0953   0.7223
     0.7379   1.1561   1.5682   1.7925   1.8793   2.2471   2.5890   2.8505
     2.9250   3.6947   3.7528   4.0496   4.2253

          k = 0.1250 0.4375 0.0000 (  8525 PWs)   bands (ev):

    -6.4194  -6.0257  -5.3897  -5.2940  -4.9031  -4.5056  -4.2715  -3.3981
    -3.3934  -2.2940  -2.0843  -0.9920  -0.5760   0.1561   0.4194   0.6347
     1.0751   1.1537   1.3508   1.6180   1.9967   2.2154   2.2222   2.2575
     3.0718   3.0772   3.2642   4.1119   4.3514

          k = 0.1250-0.5000 0.0000 (  8522 PWs)   bands (ev):

    -5.8907  -5.8907  -5.4983  -5.4983  -4.8643  -4.8643  -3.9830  -3.9829
    -2.8791  -2.8791  -1.5705  -1.5705  -0.0720  -0.0720   0.6496   0.6497
     1.0554   1.0555   1.6396   1.6396   1.7268   1.7268   2.4749   2.4749
     2.7387   2.7387   3.5638   3.5638   4.8330

          k = 0.1875 0.1875 0.0000 (  8563 PWs)   bands (ev):

    -7.6612  -7.2645  -6.6234  -5.7326  -4.6170  -3.2933  -2.0887  -2.0887
    -1.7711  -1.7076  -1.7076  -1.0932  -1.0932  -0.2248  -0.2248   0.0004
     0.8561   0.8561   1.0680   2.1248   2.1248   3.1548   3.5835   3.5835
     3.6362   3.6443   4.2526   4.5325   4.5325

          k = 0.1875 0.2500 0.0000 (  8550 PWs)   bands (ev):

    -7.4121  -7.0159  -6.3757  -5.4863  -4.3725  -3.0507  -2.9374  -2.5530
    -1.9339  -1.8495  -1.5311  -1.4674  -1.0907  -0.8237  -0.0607   0.0974
     0.2363   1.0783   1.2985   1.3177   2.3391   2.4435   2.8049   2.8309
     3.4311   3.7862   3.7884   4.2781   4.4706

          k = 0.1875 0.3125 0.0000 (  8543 PWs)   bands (ev):

    -7.0922  -6.6968  -6.0580  -5.1703  -4.0585  -3.7285  -3.3413  -2.7392
    -2.7165  -1.8506  -1.5416  -1.2231  -1.1704  -0.7491  -0.5421   0.3230
     0.5340   0.5414   1.3928   1.5937   1.7073   2.0082   2.0761   2.6804
     2.6818   3.5289   3.6746   4.0492   4.2277

          k = 0.1875 0.3750 0.0000 (  8512 PWs)   bands (ev):

    -6.7023  -6.3079  -5.6706  -4.7850  -4.4564  -4.0673  -3.6757  -3.4389
    -2.5662  -2.3597  -1.4776  -1.1694  -0.8485  -0.7804  -0.2537  -0.0804
     0.6885   0.8128   1.1053   1.3254   1.3806   1.7548   1.9510   1.9872
     2.8407   3.0239   3.0625   3.8822   4.0815

          k = 0.1875 0.4375 0.0000 (  8506 PWs)   bands (ev):

    -6.2429  -5.8496  -5.2142  -5.1189  -4.7283  -4.3311  -4.0974  -3.2250
    -3.2205  -2.1231  -1.9131  -0.8420  -0.7079  -0.4107  -0.3492   0.2810
     0.3405   0.6883   0.7498   1.1324   1.3265   1.4057   2.1496   2.1687
     2.4165   2.4897   3.2692   3.3010   3.6225

          k = 0.1875-0.5000 0.0000 (  8526 PWs)   bands (ev):

    -5.7148  -5.7148  -5.3228  -5.3228  -4.6895  -4.6895  -3.8092  -3.8092
    -2.7068  -2.7067  -1.4010  -1.4010  -0.2213  -0.2213   0.0256   0.0256
     0.2493   0.2494   0.7818   0.7818   1.6287   1.6287   1.8633   1.8633
     2.7163   2.7163   2.8702   2.8703   3.9960

          k = 0.2500 0.2500 0.0000 (  8533 PWs)   bands (ev):

    -7.1632  -6.7676  -6.1285  -5.2404  -4.1281  -2.8085  -2.6967  -2.6967
    -2.3132  -2.3132  -1.6952  -1.6952  -1.2915  -0.8218  -0.8218   0.2622
     0.2622   0.4662   1.5278   1.5392   1.5392   1.6477   2.0166   2.6224
     3.0149   3.0149   3.4708   3.9871   4.5505

          k = 0.2500 0.3125 0.0000 (  8542 PWs)   bands (ev):

    -6.8440  -6.4492  -5.8113  -4.9250  -3.8148  -3.4858  -3.0997  -2.4978
    -2.4778  -2.3877  -2.0034  -1.6298  -1.3572  -0.9852  -0.5863  -0.4418
     0.5510   0.6804   0.7899   0.9784   1.2569   1.8179   1.8183   1.8646
     2.2873   2.7195   3.2772   3.7614   4.0527

          k = 0.2500 0.3750 0.0000 (  8516 PWs)   bands (ev):

    -6.4547  -6.0609  -5.4247  -4.5404  -4.2124  -3.8240  -3.4328  -3.1970
    -2.3278  -2.1193  -2.0092  -1.6367  -1.2222  -1.0051  -0.6145  -0.1384
     0.0705   0.1491   0.5595   0.9369   1.1316   1.2107   1.5442   1.9784
     2.2217   2.2308   3.0844   3.2279   3.7941

          k = 0.2500 0.4375 0.0000 (  8530 PWs)   bands (ev):

    -5.9961  -5.6034  -4.9690  -4.8741  -4.4840  -4.0873  -3.8541  -2.9831
    -2.9790  -1.8866  -1.6747  -1.5673  -1.1769  -0.6490  -0.4851  -0.4808
    -0.2393  -0.0152   0.2965   0.5248   0.9244   1.3664   1.3739   1.5959
     2.4654   2.6065   2.6397   2.6727   3.6907

          k = 0.2500-0.5000 0.0000 (  8542 PWs)   bands (ev):

    -5.4690  -5.4689  -5.0775  -5.0775  -4.4452  -4.4452  -3.5665  -3.5664
    -2.4666  -2.4665  -1.1804  -1.1804  -1.0381  -1.0381  -0.6762  -0.6762
    -0.0449  -0.0449   0.3504   0.3505   0.8098   0.8098   1.8252   1.8252
     2.1641   2.1641   2.9736   2.9737   3.3067

          k = 0.3125 0.3125 0.0000 (  8538 PWs)   bands (ev):

    -6.5255  -6.1314  -5.4949  -4.6103  -3.5024  -3.1746  -3.1746  -2.7899
    -2.7899  -2.1883  -2.1694  -2.1694  -1.2924  -1.2924  -0.6828  -0.2064
    -0.2064   0.0846   0.4952   1.0655   1.0764   1.0764   1.1451   1.9142
     2.1560   2.5590   2.5590   3.0220   4.2783

          k = 0.3125 0.3750 0.0000 (  8528 PWs)   bands (ev):

    -6.1370  -5.7440  -5.1090  -4.2265  -3.8996  -3.5124  -3.1213  -2.8883
    -2.7953  -2.4096  -2.0369  -1.8116  -1.7624  -0.9830  -0.8529  -0.6117
    -0.3719  -0.1488   0.1499   0.3897   0.3946   1.2449   1.4214   1.4614
     1.8927   2.3384   2.4746   2.8860   3.6708

          k = 0.3125 0.4375 0.0000 (  8526 PWs)   bands (ev):

    -5.6794  -5.2875  -4.6543  -4.5598  -4.1706  -3.7743  -3.5423  -2.6729
    -2.6710  -2.3473  -1.9731  -1.5624  -1.3840  -1.3397  -1.2382  -0.8746
    -0.4720  -0.2683  -0.2432   0.1470   0.6068   0.6136   1.2097   1.6283
     1.9047   1.9668   2.7766   2.8994   3.1148

          k = 0.3125-0.5000 0.0000 (  8514 PWs)   bands (ev):

    -5.1534  -5.1534  -4.7627  -4.7627  -4.1317  -4.1317  -3.2552  -3.2551
    -2.1607  -2.1607  -1.8358  -1.8358  -1.4445  -1.4444  -0.9141  -0.9141
    -0.7586  -0.7585   0.0314   0.0314   0.6553   0.6553   1.1043   1.1043
     2.3804   2.3804   2.4079   2.4080   3.4289

          k = 0.3750 0.3750 0.0000 (  8518 PWs)   bands (ev):

    -5.7497  -5.3577  -4.7242  -3.8438  -3.5181  -3.5181  -3.1324  -3.1324
    -2.7419  -2.5100  -2.5100  -1.6309  -1.6309  -1.4518  -1.3049  -0.9408
    -0.5438  -0.5438  -0.3097   0.0792   0.5481   0.7428   0.7428   1.5629
     1.9008   2.2297   2.2297   2.7111   3.0508

          k = 0.3750 0.4375 0.0000 (  8527 PWs)   bands (ev):

    -5.2933  -4.9023  -4.2708  -4.1766  -3.7887  -3.3934  -3.1633  -3.0687
    -2.6822  -2.3092  -2.2979  -2.0347  -1.9705  -1.5788  -1.2481  -1.1295
    -1.0469  -0.8961  -0.1197  -0.1021   0.1215   0.5207   0.9722   1.1548
     1.6276   2.2498   2.2753   2.6227   3.2979

          k = 0.3750-0.5000 0.0000 (  8516 PWs)   bands (ev):

    -4.7687  -4.7687  -4.3790  -4.3789  -3.7500  -3.7500  -2.8776  -2.8776
    -2.5510  -2.5510  -2.1760  -2.1760  -1.7675  -1.7675  -1.5418  -1.5418
    -0.6739  -0.6739  -0.4722  -0.4722   0.4073   0.4073   1.0084   1.0085
     1.7075   1.7075   2.7007   2.7007   3.2806

          k = 0.4375 0.4375 0.0000 (  8530 PWs)   bands (ev):

    -4.8384  -4.4484  -3.8190  -3.7254  -3.7254  -3.3389  -3.3389  -2.9463
    -2.7154  -2.7154  -2.6193  -2.2437  -1.8358  -1.8350  -1.8350  -1.6092
    -0.7474  -0.7474  -0.7416  -0.5404   0.3398   0.5417   0.5417   0.9409
     1.6410   2.0312   2.0312   2.6341   3.2156

          k = 0.4375-0.5000 0.0000 (  8546 PWs)   bands (ev):

    -4.3155  -4.3155  -3.9271  -3.9271  -3.3013  -3.3013  -3.2060  -3.2060
    -2.8192  -2.8192  -2.4460  -2.4460  -2.1714  -2.1714  -1.3811  -1.3811
    -1.2687  -1.2687  -0.2551  -0.2551  -0.0130  -0.0130   1.0212   1.0212
     1.4947   1.4947   2.4910   2.4910   3.2801

          k =-0.5000-0.5000 0.0000 (  8532 PWs)   bands (ev):

    -3.7946  -3.7946  -3.7946  -3.7946  -3.4079  -3.4079  -3.4079  -3.4078
    -2.7836  -2.7835  -2.7835  -2.7835  -1.9031  -1.9030  -1.9030  -1.9030
    -0.8155  -0.8155  -0.8155  -0.8155   0.4746   0.4746   0.4746   0.4746
     1.9650   1.9651   1.9651   1.9651   3.6954

     the Fermi energy is     2.8239 ev

!    total energy              =    -199.30618557 Ry
     Harris-Foulkes estimate   =    -199.30618552 Ry
     estimated scf accuracy    <       0.00000022 Ry

     The total energy is the sum of the following terms:

     one-electron contribution =    -767.71218673 Ry
     hartree contribution      =     398.67289074 Ry
     xc contribution           =    -160.12471347 Ry
     ewald contribution        =     329.85795727 Ry
     smearing contrib. (-TS)   =      -0.00013338 Ry

     convergence has been achieved in  17 iterations

     Forces acting on atoms (Ry/au):

     atom    1 type  1   force =     0.00000000    0.00000000   -0.00298162
     atom    2 type  1   force =     0.00000000    0.00000000   -0.00298180
     atom    3 type  1   force =     0.00000000    0.00000000    0.00220102
     atom    4 type  1   force =     0.00000000    0.00000000    0.00220102
     atom    5 type  1   force =     0.00000000    0.00000000    0.00124233
     atom    6 type  1   force =     0.00000000    0.00000000    0.00124369
     atom    7 type  1   force =     0.00000000    0.00000000    0.00132277
     atom    8 type  1   force =     0.00000000    0.00000000    0.00132277
     atom    9 type  1   force =     0.00000000    0.00000000   -0.00132389
     atom   10 type  1   force =     0.00000000    0.00000000   -0.00132227
     atom   11 type  1   force =     0.00000000    0.00000000   -0.00124394
     atom   12 type  1   force =     0.00000000    0.00000000   -0.00124394
     atom   13 type  1   force =     0.00000000    0.00000000   -0.00219996
     atom   14 type  1   force =     0.00000000    0.00000000   -0.00220069
     atom   15 type  1   force =     0.00000000    0.00000000    0.00298225
     atom   16 type  1   force =     0.00000000    0.00000000    0.00298225

     Total force =     0.008254     Total SCF correction =     0.000760


     entering subroutine stress ...

          total   stress  (Ry/bohr**3)                   (kbar)     P=   -8.59
  -0.00007990   0.00000000   0.00000000        -11.75      0.00      0.00
   0.00000000  -0.00007990   0.00000000          0.00    -11.75      0.00
   0.00000000   0.00000000  -0.00001543          0.00      0.00     -2.27


     BFGS Geometry Optimization

     number of scf cycles    =   1
     number of bfgs steps    =   0

     energy   new            =    -199.3061855703 Ry

     new trust radius        =       0.0029822510 bohr
     new conv_thr            =       0.0000010000 Ry


ATOMIC_POSITIONS (crystal)
Al       0.000000000   0.000000000  -0.000056009
Al       0.500000000   0.500000000  -0.000056012
Al       0.500000000   0.000000000   0.071469917
Al       0.000000000   0.500000000   0.071469917
Al       0.000000000   0.000000000   0.142880480
Al       0.500000000   0.500000000   0.142880505
Al       0.500000000   0.000000000   0.214310562
Al       0.000000000   0.500000000   0.214310562
Al       0.000000000   0.000000000   0.285689417
Al       0.500000000   0.500000000   0.285689447
Al       0.500000000   0.000000000   0.357119490
Al       0.000000000   0.500000000   0.357119490
Al       0.000000000   0.000000000   0.428530103
Al       0.500000000   0.500000000   0.428530089
Al       0.500000000   0.000000000   0.500056020
Al       0.000000000   0.500000000   0.500056020



     Writing output data file Al_100_4_3.save
     NEW-OLD atomic charge density approx. for the potential

     total cpu time spent up to now is      937.7 secs

     per-process dynamical memory:   242.8 Mb

     Self-consistent Calculation

     iteration #  1     ecut=    30.00 Ry     beta=0.30
     Davidson diagonalization with overlap
     ethr =  1.00E-06,  avg # of iterations =  2.0

     total cpu time spent up to now is      991.9 secs

     total energy              =    -199.30625135 Ry
     Harris-Foulkes estimate   =    -199.30625323 Ry
     estimated scf accuracy    <       0.00010737 Ry

     iteration #  2     ecut=    30.00 Ry     beta=0.30
     Davidson diagonalization with overlap
     ethr =  2.24E-07,  avg # of iterations =  1.6

     total cpu time spent up to now is     1035.9 secs

     total energy              =    -199.30624269 Ry
     Harris-Foulkes estimate   =    -199.30625316 Ry
     estimated scf accuracy    <       0.00008338 Ry

     iteration #  3     ecut=    30.00 Ry     beta=0.30
     Davidson diagonalization with overlap
     ethr =  1.74E-07,  avg # of iterations =  2.4

     total cpu time spent up to now is     1084.8 secs

     total energy              =    -199.30624786 Ry
     Harris-Foulkes estimate   =    -199.30625269 Ry
     estimated scf accuracy    <       0.00007449 Ry

     iteration #  4     ecut=    30.00 Ry     beta=0.30
     Davidson diagonalization with overlap
     ethr =  1.55E-07,  avg # of iterations =  1.0

     total cpu time spent up to now is     1128.7 secs

     total energy              =    -199.30625003 Ry
     Harris-Foulkes estimate   =    -199.30625011 Ry
     estimated scf accuracy    <       0.00000136 Ry

     iteration #  5     ecut=    30.00 Ry     beta=0.30
     Davidson diagonalization with overlap
     ethr =  2.84E-09,  avg # of iterations =  4.4

     total cpu time spent up to now is     1185.9 secs

     total energy              =    -199.30625031 Ry
     Harris-Foulkes estimate   =    -199.30625042 Ry
     estimated scf accuracy    <       0.00000175 Ry

     iteration #  6     ecut=    30.00 Ry     beta=0.30
     Davidson diagonalization with overlap
     ethr =  2.84E-09,  avg # of iterations =  1.0

     total cpu time spent up to now is     1228.8 secs

     End of self-consistent calculation

          k = 0.0000 0.0000 0.0000 (  8589 PWs)   bands (ev):

    -8.3059  -7.9051  -7.2609  -6.3659  -5.2491  -3.9215  -2.3936  -0.6165
    -0.0222  -0.0222   0.3465   0.3465   0.4699   0.9400   0.9400   1.3397
     1.3397   1.7210   1.7210   1.7698   1.7698   2.3194   2.3194   2.8122
     2.8122   2.8846   3.2645   3.2645   4.0639

          k = 0.0000 0.0625 0.0000 (  8573 PWs)   bands (ev):

    -8.2701  -7.8694  -7.2254  -6.3305  -5.2140  -3.8867  -2.3591  -0.5940
    -0.5823  -0.2184   0.0107   0.3795   0.3850   0.5030   0.9730   1.2192
     1.3784   1.7476   1.8028   1.9748   2.2898   2.2984   2.4333   2.8452
     2.8838   2.9176   3.3926   3.5671   3.7907

          k = 0.0000 0.1250 0.0000 (  8579 PWs)   bands (ev):

    -8.1628  -7.7624  -7.1188  -6.2245  -5.1087  -3.7821  -2.2555  -1.4990
    -1.1172  -0.5051  -0.4792   0.1089   0.3445   0.4778   0.6024   1.0715
     1.3869   1.4762   1.8954   1.9013   2.4117   2.8027   2.9437   3.0163
     3.0555   3.3546   3.4240   4.0811   4.1952

          k = 0.0000 0.1875 0.0000 (  8599 PWs)   bands (ev):

    -7.9841  -7.5842  -6.9413  -6.0480  -4.9334  -3.6082  -2.3992  -2.0832
    -2.0131  -1.3947  -0.5354  -0.3080   0.2729   0.5330   0.6422   0.7678
     1.2359   1.6130   1.8306   2.0388   2.0656   2.7327   3.1077   3.1791
     3.3180   3.5692   4.2620   4.3590   4.4522

          k = 0.0000 0.2500 0.0000 (  8583 PWs)   bands (ev):

    -7.7344  -7.3351  -6.6932  -5.8012  -4.6882  -3.3647  -3.2506  -2.8623
    -2.2386  -1.8422  -1.3724  -0.2934  -0.0691   0.5033   0.8723   0.9805
     0.9997   1.4656   1.8925   2.1698   2.2953   2.6265   2.9552   3.3371
     3.4023   3.7994   4.1985   4.5878   4.7093

          k = 0.0000 0.3125 0.0000 (  8545 PWs)   bands (ev):

    -7.4139  -7.0154  -6.3747  -5.4845  -4.3736  -4.0427  -3.6522  -3.0526
    -3.0251  -2.1539  -1.5330  -1.0672   0.2217   0.2372   0.7985   1.1677
     1.2971   1.6763   1.7611   2.1735   2.5909   2.6689   3.2480   3.5171
     3.6325   3.6750   3.9533   4.0694   4.3221

          k = 0.0000 0.3750 0.0000 (  8532 PWs)   bands (ev):

    -7.0231  -6.6255  -5.9865  -5.0983  -4.7722  -4.3801  -3.9900  -3.7500
    -2.8740  -2.6723  -1.7814  -1.1566  -0.4840   0.6093   1.0002   1.1602
     1.5294   1.6603   2.1229   2.4133   2.9493   2.9526   3.0169   3.2631
     3.6320   3.6325   3.7384   3.9475   3.9937

          k = 0.0000 0.4375 0.0000 (  8540 PWs)   bands (ev):

    -6.5627  -6.1662  -5.5291  -5.4363  -5.0426  -4.6435  -4.4099  -3.5381
    -3.5302  -2.4325  -2.2239  -1.1283  -0.7132   0.3681   1.0450   1.5870
     1.9562   2.0737   2.0882   2.5497   2.6385   3.0077   3.0892   3.1337
     3.3792   3.4444   3.6007   3.9344   4.0629

          k = 0.0000-0.5000 0.0000 (  8538 PWs)   bands (ev):

    -6.0335  -6.0335  -5.6383  -5.6383  -5.0033  -5.0033  -4.1204  -4.1204
    -3.0184  -3.0183  -1.7090  -1.7090  -0.2046  -0.2046   1.5399   1.5399
     2.0799   2.0799   2.4491   2.4491   2.5801   2.5801   3.0423   3.0423
     3.5228   3.5228   3.8716   3.8716   3.9341

          k = 0.0625 0.0625 0.0000 (  8583 PWs)   bands (ev):

    -8.2343  -7.8337  -7.1899  -6.2952  -5.1789  -3.8518  -2.3246  -0.5608
    -0.5608  -0.5480  -0.1852  -0.1852   0.4176   0.4176   0.5361   1.2614
     1.2614   2.0064   2.0064   2.2678   2.2678   2.4372   2.4372   2.9503
     2.9749   2.9749   3.6097   3.6097   3.9019

          k = 0.0625 0.1250 0.0000 (  8586 PWs)   bands (ev):

    -8.1270  -7.7267  -7.0833  -6.1892  -5.0736  -3.7474  -2.2212  -1.4650
    -1.0840  -0.4728  -0.4608  -0.4452  -0.0841   0.3595   0.5427   0.6354
     1.3277   1.4829   2.1023   2.4142   2.4967   2.6869   3.0481   3.0893
     3.1689   3.4775   3.6453   3.8806   4.2014

          k = 0.0625 0.1875 0.0000 (  8596 PWs)   bands (ev):

    -7.9484  -7.5486  -6.9058  -6.0127  -4.8983  -3.5734  -2.3646  -2.0489
    -1.9791  -1.3610  -0.5037  -0.2929  -0.2742   0.0777   0.5745   0.6892
     0.8009   1.5389   1.8368   2.2881   2.5885   2.6357   3.2078   3.3160
     3.3722   3.8462   4.1345   4.3085   4.6303

          k = 0.0625 0.2500 0.0000 (  8569 PWs)   bands (ev):

    -7.6988  -7.2995  -6.6578  -5.7660  -4.6532  -3.3299  -3.2158  -2.8274
    -2.2043  -1.8077  -1.3388  -0.2632  -0.0608  -0.0352   0.3217   0.8844
     1.0327   1.0676   1.7683   2.4457   2.5058   2.8184   2.9985   3.4149
     3.5472   4.0725   4.2333   4.2635   4.3772

          k = 0.0625 0.3125 0.0000 (  8533 PWs)   bands (ev):

    -7.3783  -6.9798  -6.3394  -5.4494  -4.3387  -4.0079  -3.6176  -3.0179
    -2.9906  -2.1197  -1.4986  -1.0338   0.2077   0.2707   0.2867   0.6151
     1.2317   1.3301   1.7375   2.0705   2.7652   3.1070   3.2514   3.3626
     3.5765   3.7940   3.8168   3.8589   4.2960

          k = 0.0625 0.3750 0.0000 (  8531 PWs)   bands (ev):

    -6.9876  -6.5901  -5.9513  -5.0633  -4.7373  -4.3452  -3.9552  -3.7152
    -2.8395  -2.6377  -1.7473  -1.1223  -0.4512   0.6064   0.6417   0.9204
     1.1091   1.5938   1.6929   2.4316   2.7021   2.7287   3.1082   3.2949
     3.5009   3.6086   3.7059   3.7793   4.0919

          k = 0.0625 0.4375 0.0000 (  8517 PWs)   bands (ev):

    -6.5274  -6.1310  -5.4940  -5.4012  -5.0075  -4.6085  -4.3750  -3.5033
    -3.4955  -2.3982  -2.1894  -1.0947  -0.6793   0.3982   1.0333   1.0731
     1.4289   2.0203   2.1150   2.1200   2.1557   2.4833   2.8524   3.0832
     3.1806   3.6503   3.9188   3.9221   4.0336

          k = 0.0625-0.5000 0.0000 (  8546 PWs)   bands (ev):

    -5.9982  -5.9982  -5.6031  -5.6031  -4.9682  -4.9682  -4.0855  -4.0855
    -2.9839  -2.9839  -1.6747  -1.6747  -0.1715  -0.1715   1.4482   1.4482
     1.6780   1.6780   1.9221   1.9221   2.5224   2.5224   2.6090   2.6090
     3.3652   3.3652   4.0779   4.0779   4.4085

          k = 0.1250 0.1250 0.0000 (  8581 PWs)   bands (ev):

    -8.0198  -7.6198  -6.9768  -6.0833  -4.9684  -3.6430  -2.1179  -1.3636
    -1.3636  -0.9832  -0.9832  -0.3729  -0.3729  -0.3427   0.4876   0.4876
     0.7345   1.5570   1.5570   2.8030   2.8030   3.1413   3.2018   3.2018
     3.5520   3.5520   4.1915   4.1915   4.3261

          k = 0.1250 0.1875 0.0000 (  8562 PWs)   bands (ev):

    -7.8414  -7.4418  -6.7994  -5.9069  -4.7932  -3.4689  -2.2615  -1.9455
    -1.8770  -1.2609  -1.1943  -0.8128  -0.4222  -0.1736  -0.1720   0.5889
     0.7519   0.9002   1.7163   1.9621   2.9660   3.2807   3.3548   3.3807
     3.8350   4.2047   4.3571   4.3809   4.4618

          k = 0.1250 0.2500 0.0000 (  8568 PWs)   bands (ev):

    -7.5919  -7.1929  -6.5516  -5.6604  -4.5482  -3.2258  -3.1121  -2.7241
    -2.1020  -1.7048  -1.2395  -0.9565  -0.5849  -0.1480   0.0384   0.0660
     0.9001   1.1315   1.1368   1.9596   2.5873   3.2109   3.2365   3.5555
     3.6849   3.6927   4.0167   4.2997   4.3221

          k = 0.1250 0.3125 0.0000 (  8539 PWs)   bands (ev):

    -7.2717  -6.8734  -6.2334  -5.3440  -4.2339  -3.9039  -3.5139  -2.9140
    -2.8874  -2.0174  -1.3961  -0.9362  -0.6541  -0.2656   0.2673   0.3702
     0.4453   1.1968   1.4283   1.8503   2.2545   2.5510   2.9384   3.4959
     3.5171   3.5382   3.9021   4.0073   4.3059

          k = 0.1250 0.3750 0.0000 (  8523 PWs)   bands (ev):

    -6.8813  -6.4840  -5.8456  -4.9583  -4.6326  -4.2407  -3.8508  -3.6111
    -2.7362  -2.5340  -1.6456  -1.0201  -0.3741  -0.2591   0.0959   0.7234
     0.7353   1.1537   1.5703   1.7900   1.8773   2.2476   2.5877   2.8517
     2.9229   3.6968   3.7508   4.0471   4.2236

          k = 0.1250 0.4375 0.0000 (  8525 PWs)   bands (ev):

    -6.4214  -6.0252  -5.3886  -5.2960  -4.9026  -4.5038  -4.2705  -3.3993
    -3.3916  -2.2951  -2.0863  -0.9940  -0.5785   0.1541   0.4184   0.6338
     1.0728   1.1548   1.3486   1.6186   1.9988   2.2129   2.2234   2.2550
     3.0739   3.0762   3.2619   4.1109   4.3493

          k = 0.1250-0.5000 0.0000 (  8522 PWs)   bands (ev):

    -5.8926  -5.8926  -5.4978  -5.4978  -4.8633  -4.8633  -3.9811  -3.9811
    -2.8802  -2.8802  -1.5725  -1.5725  -0.0744  -0.0744   0.6477   0.6477
     1.0560   1.0560   1.6400   1.6400   1.7251   1.7251   2.4765   2.4765
     2.7368   2.7368   3.5627   3.5627   4.8310

          k = 0.1875 0.1875 0.0000 (  8563 PWs)   bands (ev):

    -7.6632  -7.2640  -6.6223  -5.7308  -4.6182  -3.2953  -2.0907  -2.0907
    -1.7736  -1.7071  -1.7071  -1.0922  -1.0922  -0.2227  -0.2227  -0.0022
     0.8549   0.8550   1.0655   2.1229   2.1229   3.1527   3.5812   3.5812
     3.6368   3.6426   4.2538   4.5304   4.5304

          k = 0.1875 0.2500 0.0000 (  8550 PWs)   bands (ev):

    -7.4140  -7.0154  -6.3747  -5.4845  -4.3736  -3.0527  -2.9393  -2.5524
    -1.9328  -1.8514  -1.5335  -1.4669  -1.0891  -0.8223  -0.0597   0.0973
     0.2337   1.0769   1.2960   1.3160   2.3371   2.4415   2.8025   2.8315
     3.4322   3.7846   3.7861   4.2802   4.4680

          k = 0.1875 0.3125 0.0000 (  8543 PWs)   bands (ev):

    -7.0942  -6.6963  -6.0570  -5.1685  -4.0596  -3.7304  -3.3408  -2.7412
    -2.7155  -1.8487  -1.5436  -1.2255  -1.1701  -0.7500  -0.5410   0.3249
     0.5314   0.5393   1.3918   1.5912   1.7053   2.0058   2.0767   2.6785
     2.6829   3.5310   3.6726   4.0475   4.2249

          k = 0.1875 0.3750 0.0000 (  8512 PWs)   bands (ev):

    -6.7043  -6.3074  -5.6696  -4.7832  -4.4583  -4.0668  -3.6769  -3.4379
    -2.5643  -2.3617  -1.4787  -1.1714  -0.8510  -0.7799  -0.2538  -0.0811
     0.6904   0.8105   1.1031   1.3231   1.3811   1.7537   1.9485   1.9883
     2.8428   3.0220   3.0602   3.8811   4.0791

          k = 0.1875 0.4375 0.0000 (  8506 PWs)   bands (ev):

    -6.2448  -5.8491  -5.2131  -5.1208  -4.7278  -4.3292  -4.0964  -3.2261
    -3.2186  -2.1242  -1.9151  -0.8442  -0.7095  -0.4131  -0.3486   0.2821
     0.3385   0.6859   0.7503   1.1344   1.3263   1.4045   2.1482   2.1701
     2.4148   2.4875   3.2681   3.2990   3.6201

          k = 0.1875-0.5000 0.0000 (  8526 PWs)   bands (ev):

    -5.7167  -5.7167  -5.3223  -5.3223  -4.6885  -4.6885  -3.8074  -3.8073
    -2.7079  -2.7079  -1.4030  -1.4030  -0.2233  -0.2233   0.0244   0.0244
     0.2486   0.2487   0.7829   0.7829   1.6307   1.6307   1.8608   1.8608
     2.7153   2.7153   2.8679   2.8679   3.9940

          k = 0.2500 0.2500 0.0000 (  8533 PWs)   bands (ev):

    -7.1651  -6.7671  -6.1275  -5.2385  -4.1292  -2.8105  -2.6987  -2.6987
    -2.3127  -2.3127  -1.6942  -1.6942  -1.2940  -0.8197  -0.8197   0.2610
     0.2610   0.4637   1.5253   1.5373   1.5373   1.6457   2.0171   2.6235
     3.0125   3.0125   3.4729   3.9854   4.5494

          k = 0.2500 0.3125 0.0000 (  8542 PWs)   bands (ev):

    -6.8459  -6.4487  -5.8103  -4.9232  -3.8160  -3.4877  -3.0992  -2.4998
    -2.4767  -2.3897  -2.0029  -1.6282  -1.3558  -0.9877  -0.5854  -0.4418
     0.5496   0.6781   0.7882   0.9762   1.2575   1.8158   1.8159   1.8657
     2.2850   2.7216   3.2750   3.7604   4.0502

          k = 0.2500 0.3750 0.0000 (  8516 PWs)   bands (ev):

    -6.4567  -6.0604  -5.4237  -4.5386  -4.2144  -3.8235  -3.4340  -3.1960
    -2.3260  -2.1213  -2.0112  -1.6363  -1.2231  -1.0040  -0.6169  -0.1365
     0.0684   0.1471   0.5600   0.9359   1.1310   1.2098   1.5418   1.9797
     2.2200   2.2289   3.0834   3.2258   3.7913

          k = 0.2500 0.4375 0.0000 (  8530 PWs)   bands (ev):

    -5.9981  -5.6029  -4.9679  -4.8760  -4.4835  -4.0854  -3.8531  -2.9843
    -2.9771  -1.8878  -1.6767  -1.5694  -1.1763  -0.6493  -0.4857  -0.4827
    -0.2406  -0.0158   0.2983   0.5259   0.9220   1.3653   1.3758   1.5934
     2.4643   2.6041   2.6379   2.6703   3.6883

          k = 0.2500-0.5000 0.0000 (  8542 PWs)   bands (ev):

    -5.4709  -5.4709  -5.0770  -5.0770  -4.4442  -4.4442  -3.5646  -3.5646
    -2.4677  -2.4677  -1.1826  -1.1826  -1.0398  -1.0398  -0.6757  -0.6757
    -0.0438  -0.0438   0.3480   0.3480   0.8118   0.8118   1.8238   1.8239
     2.1620   2.1620   2.9717   2.9717   3.3043

          k = 0.3125 0.3125 0.0000 (  8538 PWs)   bands (ev):

    -6.5274  -6.1309  -5.4939  -4.6085  -3.5035  -3.1765  -3.1765  -2.7894
    -2.7894  -2.1903  -2.1684  -2.1684  -1.2904  -1.2904  -0.6852  -0.2076
    -0.2076   0.0826   0.4957   1.0648   1.0745   1.0745   1.1444   1.9154
     2.1543   2.5567   2.5567   3.0210   4.2761

          k = 0.3125 0.3750 0.0000 (  8528 PWs)   bands (ev):

    -6.1389  -5.7435  -5.1080  -4.2247  -3.9015  -3.5119  -3.1224  -2.8873
    -2.7973  -2.4092  -2.0353  -1.8136  -1.7611  -0.9821  -0.8529  -0.6137
    -0.3733  -0.1494   0.1484   0.3880   0.3957   1.2469   1.4194   1.4589
     1.8904   2.3374   2.4722   2.8838   3.6215

          k = 0.3125 0.4375 0.0000 (  8526 PWs)   bands (ev):

    -5.6814  -5.2870  -4.6533  -4.5617  -4.1701  -3.7724  -3.5413  -2.6741
    -2.6691  -2.3493  -1.9727  -1.5633  -1.3862  -1.3386  -1.2399  -0.8741
    -0.4701  -0.2703  -0.2422   0.1445   0.6058   0.6156   1.2073   1.6270
     1.9028   1.9647   2.7747   2.8973   3.1124

          k = 0.3125-0.5000 0.0000 (  8514 PWs)   bands (ev):

    -5.1553  -5.1553  -4.7622  -4.7622  -4.1306  -4.1306  -3.2533  -3.2533
    -2.1618  -2.1618  -1.8378  -1.8378  -1.4439  -1.4439  -0.9145  -0.9145
    -0.7591  -0.7591   0.0332   0.0332   0.6530   0.6530   1.1032   1.1032
     2.3786   2.3786   2.4056   2.4056   3.4265

          k = 0.3750 0.3750 0.0000 (  8518 PWs)   bands (ev):

    -5.7516  -5.3572  -4.7231  -3.8419  -3.5200  -3.5200  -3.1319  -3.1319
    -2.7431  -2.5090  -2.5090  -1.6289  -1.6289  -1.4540  -1.3066  -0.9402
    -0.5450  -0.5450  -0.3087   0.0767   0.5501   0.7409   0.7409   1.5615
     1.8987   2.2273   2.2273   2.7092   3.0484

          k = 0.3750 0.4375 0.0000 (  8527 PWs)   bands (ev):

    -5.2953  -4.9018  -4.2698  -4.1786  -3.7881  -3.3916  -3.1623  -3.0707
    -2.6817  -2.3077  -2.2991  -2.0333  -1.9725  -1.5782  -1.2473  -1.1295
    -1.0473  -0.8965  -0.1211  -0.1003   0.1199   0.5183   0.9711   1.1528
     1.6253   2.2479   2.2729   2.6205   3.2955

          k = 0.3750-0.5000 0.0000 (  8516 PWs)   bands (ev):

    -4.7706  -4.7706  -4.3785  -4.3784  -3.7489  -3.7489  -2.8757  -2.8757
    -2.5530  -2.5530  -2.1756  -2.1756  -1.7684  -1.7684  -1.5407  -1.5407
    -0.6721  -0.6721  -0.4742  -0.4742   0.4062   0.4062   1.0060   1.0060
     1.7056   1.7056   2.6986   2.6986   3.2778

          k = 0.4375 0.4375 0.0000 (  8530 PWs)   bands (ev):

    -4.8404  -4.4479  -3.8180  -3.7273  -3.7273  -3.3384  -3.3384  -2.9445
    -2.7144  -2.7144  -2.6213  -2.2434  -1.8368  -1.8331  -1.8331  -1.6080
    -0.7486  -0.7486  -0.7398  -0.5424   0.3388   0.5398   0.5398   0.9385
     1.6392   2.0289   2.0289   2.6320   3.2128

          k = 0.4375-0.5000 0.0000 (  8546 PWs)   bands (ev):

    -4.3175  -4.3175  -3.9266  -3.9266  -3.3002  -3.3002  -3.2080  -3.2080
    -2.8187  -2.8187  -2.4444  -2.4444  -2.1701  -2.1701  -1.3804  -1.3804
    -1.2687  -1.2687  -0.2566  -0.2566  -0.0146  -0.0146   1.0192   1.0192
     1.4924   1.4924   2.4888   2.4888   3.2775

          k =-0.5000-0.5000 0.0000 (  8532 PWs)   bands (ev):

    -3.7965  -3.7965  -3.7965  -3.7965  -3.4074  -3.4073  -3.4073  -3.4073
    -2.7826  -2.7826  -2.7826  -2.7826  -1.9011  -1.9011  -1.9011  -1.9011
    -0.8167  -0.8167  -0.8167  -0.8167   0.4727   0.4727   0.4727   0.4727
     1.9627   1.9627   1.9627   1.9627   3.6932

     the Fermi energy is     2.8229 ev

!    total energy              =    -199.30625025 Ry
     Harris-Foulkes estimate   =    -199.30625035 Ry
     estimated scf accuracy    <       0.00000016 Ry

     The total energy is the sum of the following terms:

     one-electron contribution =    -767.67881751 Ry
     hartree contribution      =     398.66853212 Ry
     xc contribution           =    -160.12335646 Ry
     ewald contribution        =     329.82752148 Ry
     smearing contrib. (-TS)   =      -0.00012988 Ry

     convergence has been achieved in   6 iterations

     Forces acting on atoms (Ry/au):

     atom    1 type  1   force =     0.00000000    0.00000000   -0.00268860
     atom    2 type  1   force =     0.00000000    0.00000000   -0.00268877
     atom    3 type  1   force =     0.00000000    0.00000000    0.00187994
     atom    4 type  1   force =     0.00000000    0.00000000    0.00187994
     atom    5 type  1   force =     0.00000000    0.00000000    0.00128766
     atom    6 type  1   force =     0.00000000    0.00000000    0.00128890
     atom    7 type  1   force =     0.00000000    0.00000000    0.00116896
     atom    8 type  1   force =     0.00000000    0.00000000    0.00116896
     atom    9 type  1   force =     0.00000000    0.00000000   -0.00116976
     atom   10 type  1   force =     0.00000000    0.00000000   -0.00116795
     atom   11 type  1   force =     0.00000000    0.00000000   -0.00128910
     atom   12 type  1   force =     0.00000000    0.00000000   -0.00128910
     atom   13 type  1   force =     0.00000000    0.00000000   -0.00187958
     atom   14 type  1   force =     0.00000000    0.00000000   -0.00188027
     atom   15 type  1   force =     0.00000000    0.00000000    0.00268938
     atom   16 type  1   force =     0.00000000    0.00000000    0.00268938

     Total force =     0.007428     Total SCF correction =     0.000617


     entering subroutine stress ...

          total   stress  (Ry/bohr**3)                   (kbar)     P=   -8.66
  -0.00008034   0.00000000   0.00000000        -11.82      0.00      0.00
   0.00000000  -0.00008034   0.00000000          0.00    -11.82      0.00
   0.00000000   0.00000000  -0.00001592          0.00      0.00     -2.34


     number of scf cycles    =   2
     number of bfgs steps    =   1

     energy   old            =    -199.3061855703 Ry
     energy   new            =    -199.3062502538 Ry

     CASE: energy  _new < energy  _old


     WARNING: bfgs curvature condition failed, Theta= 0.890
     new trust radius        =       0.0032804761 bohr
     new conv_thr            =       0.0000000100 Ry


ATOMIC_POSITIONS (crystal)
Al       0.000000000   0.000000000  -0.000117614
Al       0.500000000   0.500000000  -0.000117621
Al       0.500000000   0.000000000   0.071513454
Al       0.000000000   0.500000000   0.071513454
Al       0.000000000   0.000000000   0.142909248
Al       0.500000000   0.500000000   0.142909302
Al       0.500000000   0.000000000   0.214337452
Al       0.000000000   0.500000000   0.214337452
Al       0.000000000   0.000000000   0.285662508
Al       0.500000000   0.500000000   0.285662578
Al       0.500000000   0.000000000   0.357090688
Al       0.000000000   0.500000000   0.357090688
Al       0.000000000   0.000000000   0.428486577
Al       0.500000000   0.500000000   0.428486548
Al       0.500000000   0.000000000   0.500117643
Al       0.000000000   0.500000000   0.500117643



     Writing output data file Al_100_4_3.save
     NEW-OLD atomic charge density approx. for the potential

     total cpu time spent up to now is     1251.5 secs

     per-process dynamical memory:   242.8 Mb

     Self-consistent Calculation

     iteration #  1     ecut=    30.00 Ry     beta=0.30
     Davidson diagonalization with overlap
     ethr =  1.00E-06,  avg # of iterations =  2.0

     Threshold (ethr) on eigenvalues was too large:
     Diagonalizing with lowered threshold

     Davidson diagonalization with overlap
     ethr =  4.49E-08,  avg # of iterations =  3.1

     total cpu time spent up to now is     1355.4 secs

     total energy              =    -199.30631492 Ry
     Harris-Foulkes estimate   =    -199.30631612 Ry
     estimated scf accuracy    <       0.00004198 Ry

     iteration #  2     ecut=    30.00 Ry     beta=0.30
     Davidson diagonalization with overlap
     ethr =  8.75E-08,  avg # of iterations =  1.0

     negative rho (up, down):  5.031E-06 0.000E+00

     total cpu time spent up to now is     1402.5 secs

     total energy              =    -199.30631103 Ry
     Harris-Foulkes estimate   =    -199.30631510 Ry
     estimated scf accuracy    <       0.00002822 Ry

     iteration #  3     ecut=    30.00 Ry     beta=0.30
     Davidson diagonalization with overlap
     ethr =  5.88E-08,  avg # of iterations =  2.0

     negative rho (up, down):  1.274E-06 0.000E+00

     total cpu time spent up to now is     1452.5 secs

     total energy              =    -199.30631317 Ry
     Harris-Foulkes estimate   =    -199.30631407 Ry
     estimated scf accuracy    <       0.00000833 Ry

     iteration #  4     ecut=    30.00 Ry     beta=0.30
     Davidson diagonalization with overlap
     ethr =  1.74E-08,  avg # of iterations =  2.0

     negative rho (up, down):  9.888E-07 0.000E+00

     total cpu time spent up to now is     1502.9 secs

     total energy              =    -199.30631374 Ry
     Harris-Foulkes estimate   =    -199.30631374 Ry
     estimated scf accuracy    <       0.00000024 Ry

     iteration #  5     ecut=    30.00 Ry     beta=0.30
     Davidson diagonalization with overlap
     ethr =  5.00E-10,  avg # of iterations =  3.5

     negative rho (up, down):  4.942E-07 0.000E+00

     total cpu time spent up to now is     1556.9 secs

     total energy              =    -199.30631373 Ry
     Harris-Foulkes estimate   =    -199.30631377 Ry
     estimated scf accuracy    <       0.00000057 Ry

     iteration #  6     ecut=    30.00 Ry     beta=0.30
     Davidson diagonalization with overlap
     ethr =  5.00E-10,  avg # of iterations =  1.5

     negative rho (up, down):  3.086E-07 0.000E+00

     total cpu time spent up to now is     1603.3 secs

     total energy              =    -199.30631374 Ry
     Harris-Foulkes estimate   =    -199.30631374 Ry
     estimated scf accuracy    <       0.00000052 Ry

     iteration #  7     ecut=    30.00 Ry     beta=0.30
     Davidson diagonalization with overlap
     ethr =  5.00E-10,  avg # of iterations =  1.0

     total cpu time spent up to now is     1650.4 secs

     total energy              =    -199.30631371 Ry
     Harris-Foulkes estimate   =    -199.30631374 Ry
     estimated scf accuracy    <       0.00000047 Ry

     iteration #  8     ecut=    30.00 Ry     beta=0.30
     Davidson diagonalization with overlap
     ethr =  5.00E-10,  avg # of iterations =  2.0

     total cpu time spent up to now is     1699.5 secs

     total energy              =    -199.30631374 Ry
     Harris-Foulkes estimate   =    -199.30631373 Ry
     estimated scf accuracy    <       0.00000002 Ry

     iteration #  9     ecut=    30.00 Ry     beta=0.30
     Davidson diagonalization with overlap
     ethr =  3.44E-11,  avg # of iterations =  3.3

     total cpu time spent up to now is     1752.5 secs

     total energy              =    -199.30631374 Ry
     Harris-Foulkes estimate   =    -199.30631374 Ry
     estimated scf accuracy    <       0.00000001 Ry

     iteration # 10     ecut=    30.00 Ry     beta=0.30
     Davidson diagonalization with overlap
     ethr =  2.10E-11,  avg # of iterations =  1.0

     total cpu time spent up to now is     1795.8 secs

     End of self-consistent calculation

          k = 0.0000 0.0000 0.0000 (  8589 PWs)   bands (ev):

    -8.3048  -7.9013  -7.2566  -6.3609  -5.2472  -3.9206  -2.3934  -0.6166
    -0.0213  -0.0213   0.3504   0.3504   0.4698   0.9446   0.9446   1.3407
     1.3407   1.7249   1.7249   1.7753   1.7753   2.3230   2.3230   2.8143
     2.8143   2.8853   3.2700   3.2700   4.0646

          k = 0.0000 0.0625 0.0000 (  8573 PWs)   bands (ev):

    -8.2691  -7.8656  -7.2210  -6.3256  -5.2121  -3.8858  -2.3589  -0.5931
    -0.5823  -0.2145   0.0117   0.3835   0.3896   0.5029   0.9776   1.2245
     1.3794   1.7512   1.8084   1.9757   2.2924   2.3033   2.4362   2.8473
     2.8871   2.9182   3.3981   3.5678   3.7962

          k = 0.0000 0.1250 0.0000 (  8579 PWs)   bands (ev):

    -8.1618  -7.7585  -7.1144  -6.2195  -5.1068  -3.7813  -2.2552  -1.4980
    -1.1133  -0.5006  -0.4792   0.1099   0.3496   0.4818   0.6024   1.0762
     1.3888   1.4771   1.8995   1.9069   2.4157   2.8040   2.9458   3.0170
     3.0566   3.3583   3.4274   4.0849   4.1959

          k = 0.0000 0.1875 0.0000 (  8599 PWs)   bands (ev):

    -7.9831  -7.5803  -6.9369  -6.0430  -4.9314  -3.6073  -2.3982  -2.0829
    -2.0092  -1.3902  -0.5303  -0.3081   0.2739   0.5350   0.6462   0.7677
     1.2405   1.6134   1.8325   2.0427   2.0712   2.7366   3.1098   3.1798
     3.3181   3.5738   4.2627   4.3597   4.4541

          k = 0.0000 0.2500 0.0000 (  8583 PWs)   bands (ev):

    -7.7334  -7.3312  -6.6888  -5.7963  -4.6862  -3.3638  -3.2495  -2.8584
    -2.2342  -1.8419  -1.3674  -0.2914  -0.0692   0.5043   0.8763   0.9814
     0.9997   1.4703   1.8936   2.1728   2.3008   2.6275   2.9593   3.3392
     3.4030   3.8040   4.1988   4.5885   4.7103

          k = 0.0000 0.3125 0.0000 (  8545 PWs)   bands (ev):

    -7.4129  -7.0115  -6.3704  -5.4795  -4.3716  -4.0417  -3.6483  -3.0517
    -3.0207  -2.1488  -1.5327  -1.0652   0.2226   0.2371   0.7995   1.1717
     1.2970   1.6769   1.7657   2.1745   2.5965   2.6724   3.2519   3.5175
     3.6345   3.6757   3.9542   4.0735   4.3261

          k = 0.0000 0.3750 0.0000 (  8532 PWs)   bands (ev):

    -7.0220  -6.6216  -5.9821  -5.0934  -4.7712  -4.3763  -3.9880  -3.7456
    -2.8689  -2.6713  -1.7794  -1.1563  -0.4830   0.6092   1.0005   1.1611
     1.5334   1.6603   2.1275   2.4140   2.9496   2.9581   3.0206   3.2640
     3.6360   3.6367   3.7386   3.9481   3.9957

          k = 0.0000 0.4375 0.0000 (  8540 PWs)   bands (ev):

    -6.5617  -6.1624  -5.5247  -5.4352  -5.0387  -4.6385  -4.4055  -3.5362
    -3.5252  -2.4305  -2.2230  -1.1274  -0.7130   0.3684   1.0450   1.5879
     1.9602   2.0737   2.0882   2.5544   2.6395   3.0117   3.0900   3.1338
     3.3847   3.4482   3.6054   3.9351   4.0671

          k = 0.0000-0.5000 0.0000 (  8538 PWs)   bands (ev):

    -6.0325  -6.0324  -5.6344  -5.6344  -4.9989  -4.9989  -4.1154  -4.1154
    -3.0164  -3.0164  -1.7081  -1.7081  -0.2043  -0.2043   1.5399   1.5399
     2.0809   2.0809   2.4531   2.4531   2.5801   2.5801   3.0470   3.0470
     3.5237   3.5237   3.8771   3.8772   3.9380

          k = 0.0625 0.0625 0.0000 (  8583 PWs)   bands (ev):

    -8.2333  -7.8299  -7.1855  -6.2902  -5.1770  -3.8509  -2.3244  -0.5599
    -0.5599  -0.5481  -0.1813  -0.1813   0.4221   0.4221   0.5360   1.2668
     1.2668   2.0074   2.0074   2.2699   2.2699   2.4411   2.4411   2.9510
     2.9788   2.9788   3.6105   3.6105   3.9072

          k = 0.0625 0.1250 0.0000 (  8586 PWs)   bands (ev):

    -8.1260  -7.7229  -7.0789  -6.1842  -5.0717  -3.7465  -2.2210  -1.4640
    -1.0801  -0.4683  -0.4598  -0.4453  -0.0802   0.3643   0.5475   0.6353
     1.3325   1.4854   2.1031   2.4162   2.5007   2.6887   3.0488   3.0901
     3.1726   3.4810   3.6468   3.8839   4.2028

          k = 0.0625 0.1875 0.0000 (  8596 PWs)   bands (ev):

    -7.9474  -7.5447  -6.9015  -6.0077  -4.8964  -3.5725  -2.3636  -2.0486
    -1.9752  -1.3566  -0.4986  -0.2920  -0.2742   0.0816   0.5767   0.6938
     0.8008   1.5441   1.8376   2.2894   2.5905   2.6395   3.2085   3.3202
     3.3724   3.8471   4.1393   4.3094   4.6336

          k = 0.0625 0.2500 0.0000 (  8569 PWs)   bands (ev):

    -7.6978  -7.2957  -6.6534  -5.7611  -4.6512  -3.3290  -3.2148  -2.8235
    -2.1998  -1.8075  -1.3338  -0.2612  -0.0598  -0.0353   0.3256   0.8884
     1.0326   1.0691   1.7736   2.4467   2.5068   2.8205   3.0017   3.4155
     3.5514   4.0734   4.2343   4.2638   4.3819

          k = 0.0625 0.3125 0.0000 (  8533 PWs)   bands (ev):

    -7.3773  -6.9760  -6.3350  -5.4444  -4.3367  -4.0069  -3.6137  -3.0170
    -2.9862  -2.1147  -1.4983  -1.0318   0.2083   0.2707   0.2880   0.6191
     1.2362   1.3301   1.7379   2.0758   2.7661   3.1089   3.2551   3.3634
     3.5768   3.7980   3.8177   3.8631   4.2968

          k = 0.0625 0.3750 0.0000 (  8531 PWs)   bands (ev):

    -6.9866  -6.5863  -5.9469  -5.0584  -4.7363  -4.3413  -3.9533  -3.7108
    -2.8345  -2.6368  -1.7453  -1.1221  -0.4503   0.6074   0.6416   0.9232
     1.1106   1.5983   1.6929   2.4369   2.7023   2.7296   3.1122   3.2957
     3.5030   3.6125   3.7105   3.7794   4.0927

          k = 0.0625 0.4375 0.0000 (  8517 PWs)   bands (ev):

    -6.5264  -6.1271  -5.4896  -5.4002  -5.0037  -4.6035  -4.3706  -3.5013
    -3.4905  -2.3962  -2.1885  -1.0938  -0.6790   0.3985   1.0343   1.0731
     1.4328   2.0247   2.1159   2.1200   2.1559   2.4873   2.8575   3.0878
     3.1809   3.6512   3.9209   3.9275   4.0375

          k = 0.0625-0.5000 0.0000 (  8546 PWs)   bands (ev):

    -5.9972  -5.9972  -5.5993  -5.5993  -4.9638  -4.9638  -4.0805  -4.0805
    -2.9819  -2.9819  -1.6738  -1.6738  -0.1712  -0.1712   1.4488   1.4488
     1.6783   1.6784   1.9260   1.9261   2.5269   2.5270   2.6090   2.6090
     3.3706   3.3706   4.0787   4.0787   4.4106

          k = 0.1250 0.1250 0.0000 (  8581 PWs)   bands (ev):

    -8.0188  -7.6159  -6.9724  -6.0783  -4.9665  -3.6421  -2.1176  -1.3626
    -1.3626  -0.9793  -0.9793  -0.3685  -0.3685  -0.3428   0.4929   0.4929
     0.7345   1.5590   1.5590   2.8039   2.8039   3.1420   3.2030   3.2030
     3.5557   3.5557   4.1954   4.1954   4.3263

          k = 0.1250 0.1875 0.0000 (  8562 PWs)   bands (ev):

    -7.8404  -7.4379  -6.7951  -5.9020  -4.7912  -3.4680  -2.2605  -1.9452
    -1.8731  -1.2564  -1.1933  -0.8090  -0.4174  -0.1721  -0.1688   0.5932
     0.7548   0.9001   1.7182   1.9633   2.9670   3.2814   3.3559   3.3817
     3.8381   4.2057   4.3604   4.3827   4.4656

          k = 0.1250 0.2500 0.0000 (  8568 PWs)   bands (ev):

    -7.5909  -7.1890  -6.5472  -5.6554  -4.5463  -3.2249  -3.1111  -2.7202
    -2.0975  -1.7045  -1.2344  -0.9556  -0.5812  -0.1457   0.0430   0.0660
     0.9052   1.1315   1.1377   1.9617   2.5876   3.2117   3.2374   3.5564
     3.6888   3.6937   4.0205   4.3043   4.3227

          k = 0.1250 0.3125 0.0000 (  8539 PWs)   bands (ev):

    -7.2707  -6.8696  -6.2291  -5.3390  -4.2319  -3.9028  -3.5100  -2.9131
    -2.8830  -2.0124  -1.3958  -0.9342  -0.6532  -0.2616   0.2706   0.3701
     0.4475   1.2019   1.4283   1.8507   2.2566   2.5519   2.9423   3.4963
     3.5181   3.5427   3.9030   4.0081   4.3098

          k = 0.1250 0.3750 0.0000 (  8523 PWs)   bands (ev):

    -6.8802  -6.4802  -5.8412  -4.9533  -4.6316  -4.2369  -3.8488  -3.6067
    -2.7312  -2.5331  -1.6436  -1.0199  -0.3735  -0.2578   0.0998   0.7278
     0.7353   1.1539   1.5755   1.7900   1.8783   2.2516   2.5895   2.8562
     2.9233   3.7022   3.7516   4.0474   4.2245

          k = 0.1250 0.4375 0.0000 (  8525 PWs)   bands (ev):

    -6.4204  -6.0214  -5.3843  -5.2949  -4.8987  -4.4988  -4.2661  -3.3973
    -3.3866  -2.2932  -2.0854  -0.9931  -0.5782   0.1552   0.4204   0.6360
     1.0732   1.1592   1.3491   1.6225   2.0040   2.2130   2.2279   2.2551
     3.0783   3.0791   3.2620   4.1129   4.3502

          k = 0.1250-0.5000 0.0000 (  8522 PWs)   bands (ev):

    -5.8916  -5.8916  -5.4939  -5.4939  -4.8589  -4.8589  -3.9761  -3.9761
    -2.8783  -2.8782  -1.5716  -1.5716  -0.0741  -0.0741   0.6487   0.6487
     1.0598   1.0598   1.6434   1.6434   1.7261   1.7261   2.4812   2.4812
     2.7374   2.7374   3.5648   3.5648   4.8319

          k = 0.1875 0.1875 0.0000 (  8563 PWs)   bands (ev):

    -7.6621  -7.2601  -6.6180  -5.7258  -4.6162  -3.2944  -2.0897  -2.0897
    -1.7734  -1.7032  -1.7032  -1.0878  -1.0878  -0.2175  -0.2175  -0.0023
     0.8569   0.8569   1.0654   2.1239   2.1239   3.1535   3.5815   3.5815
     3.6408   3.6436   4.2584   4.5313   4.5313

          k = 0.1875 0.2500 0.0000 (  8550 PWs)   bands (ev):

    -7.4130  -7.0115  -6.3704  -5.4795  -4.3717  -3.0518  -2.9383  -2.5486
    -1.9284  -1.8504  -1.5333  -1.4631  -1.0843  -0.8175  -0.0555   0.1004
     0.2337   1.0787   1.2959   1.3172   2.3380   2.4424   2.8029   2.8354
     3.4366   3.7855   3.7866   4.2855   4.4681

          k = 0.1875 0.3125 0.0000 (  8543 PWs)   bands (ev):

    -7.0932  -6.6925  -6.0526  -5.1635  -4.0577  -3.7294  -3.3370  -2.7403
    -2.7111  -1.8437  -1.5426  -1.2253  -1.1664  -0.7478  -0.5364   0.3299
     0.5314   0.5402   1.3939   1.5911   1.7063   2.0061   2.0806   2.6795
     2.6874   3.5362   3.6730   4.0484   4.2247

          k = 0.1875 0.3750 0.0000 (  8512 PWs)   bands (ev):

    -6.7032  -6.3035  -5.6652  -4.7782  -4.4573  -4.0630  -3.6749  -3.4335
    -2.5593  -2.3608  -1.4768  -1.1705  -0.8507  -0.7759  -0.2508  -0.0786
     0.6954   0.8108   1.1037   1.3234   1.3850   1.7557   1.9485   1.9928
     2.8480   3.0230   3.0604   3.8832   4.0793

          k = 0.1875 0.4375 0.0000 (  8506 PWs)   bands (ev):

    -6.2438  -5.8452  -5.2088  -5.1198  -4.7240  -4.3242  -4.0920  -3.2242
    -3.2136  -2.1222  -1.9142  -0.8435  -0.7082  -0.4128  -0.3447   0.2865
     0.3395   0.6861   0.7542   1.1396   1.3289   1.4063   2.1499   2.1745
     2.4156   2.4880   3.2702   3.2998   3.6204

          k = 0.1875-0.5000 0.0000 (  8526 PWs)   bands (ev):

    -5.7157  -5.7157  -5.3185  -5.3184  -4.6841  -4.6841  -3.8023  -3.8023
    -2.7059  -2.7059  -1.4021  -1.4021  -0.2223  -0.2222   0.0261   0.0261
     0.2511   0.2511   0.7873   0.7873   1.6359   1.6359   1.8608   1.8608
     2.7173   2.7174   2.8680   2.8680   3.9949

          k = 0.2500 0.2500 0.0000 (  8533 PWs)   bands (ev):

    -7.1641  -6.7633  -6.1231  -5.2336  -4.1273  -2.8096  -2.6976  -2.6976
    -2.3088  -2.3088  -1.6899  -1.6899  -1.2937  -0.8145  -0.8145   0.2630
     0.2630   0.4636   1.5253   1.5383   1.5383   1.6467   2.0211   2.6281
     3.0129   3.0129   3.4782   3.9863   4.5514

          k = 0.2500 0.3125 0.0000 (  8542 PWs)   bands (ev):

    -6.8449  -6.4448  -5.8059  -4.9182  -3.8140  -3.4867  -3.0953  -2.4989
    -2.4722  -2.3887  -1.9991  -1.6235  -1.3511  -0.9874  -0.5813  -0.4388
     0.5513   0.6784   0.7895   0.9768   1.2614   1.8158   1.8168   1.8702
     2.2854   2.7268   3.2754   3.7625   4.0501

          k = 0.2500 0.3750 0.0000 (  8516 PWs)   bands (ev):

    -6.4557  -6.0566  -5.4193  -4.5336  -4.2134  -3.8197  -3.4320  -3.1916
    -2.3210  -2.1204  -2.0102  -1.6327  -1.2208  -0.9995  -0.6166  -0.1315
     0.0693   0.1481   0.5638   0.9380   1.1333   1.2120   1.5421   1.9840
     2.2209   2.2299   3.0855   3.2263   3.7912

          k = 0.2500 0.4375 0.0000 (  8530 PWs)   bands (ev):

    -5.9971  -5.5991  -4.9636  -4.8750  -4.4797  -4.0804  -3.8487  -2.9823
    -2.9721  -1.8858  -1.6758  -1.5684  -1.1723  -0.6465  -0.4831  -0.4817
    -0.2389  -0.0133   0.3033   0.5303   0.9224   1.3674   1.3810   1.5934
     2.4664   2.6043   2.6389   2.6706   3.6884

          k = 0.2500-0.5000 0.0000 (  8542 PWs)   bands (ev):

    -5.4699  -5.4699  -5.0732  -5.0732  -4.4398  -4.4398  -3.5596  -3.5596
    -2.4657  -2.4657  -1.1820  -1.1820  -1.0385  -1.0385  -0.6718  -0.6718
    -0.0394  -0.0394   0.3482   0.3482   0.8170   0.8170   1.8255   1.8255
     2.1625   2.1625   2.9724   2.9724   3.3047

          k = 0.3125 0.3125 0.0000 (  8538 PWs)   bands (ev):

    -6.5264  -6.1271  -5.4895  -4.6035  -3.5016  -3.1755  -3.1755  -2.7856
    -2.7856  -2.1894  -2.1641  -2.1641  -1.2852  -1.2852  -0.6849  -0.2056
    -0.2056   0.0836   0.4995   1.0670   1.0755   1.0755   1.1466   1.9197
     2.1553   2.5571   2.5571   3.0231   4.2765

          k = 0.3125 0.3750 0.0000 (  8528 PWs)   bands (ev):

    -6.1379  -5.7397  -5.1036  -4.2197  -3.9005  -3.5080  -3.1205  -2.8828
    -2.7963  -2.4054  -2.0305  -1.8127  -1.7564  -0.9782  -0.8498  -0.6126
    -0.3717  -0.1468   0.1501   0.3894   0.4001   1.2520   1.4203   1.4590
     1.8908   2.3395   2.4723   2.8843   3.6224

          k = 0.3125 0.4375 0.0000 (  8526 PWs)   bands (ev):

    -5.6804  -5.2832  -4.6489  -4.5607  -4.1663  -3.7674  -3.5369  -2.6721
    -2.6641  -2.3483  -1.9690  -1.5611  -1.3855  -1.3341  -1.2386  -0.8702
    -0.4651  -0.2695  -0.2378   0.1447   0.6079   0.6208   1.2076   1.6286
     1.9038   1.9652   2.7754   2.8978   3.1128

          k = 0.3125-0.5000 0.0000 (  8514 PWs)   bands (ev):

    -5.1543  -5.1543  -4.7583  -4.7583  -4.1262  -4.1262  -3.2483  -3.2483
    -2.1599  -2.1599  -1.8368  -1.8368  -1.4400  -1.4399  -0.9117  -0.9117
    -0.7564  -0.7564   0.0382   0.0382   0.6534   0.6534   1.1052   1.1052
     2.3796   2.3796   2.4058   2.4058   3.4266

          k = 0.3750 0.3750 0.0000 (  8518 PWs)   bands (ev):

    -5.7506  -5.3533  -4.7188  -3.8369  -3.5190  -3.5190  -3.1280  -3.1280
    -2.7411  -2.5047  -2.5047  -1.6238  -1.6238  -1.4533  -1.3053  -0.9363
    -0.5431  -0.5431  -0.3043   0.0769   0.5553   0.7419   0.7419   1.5631
     1.8993   2.2277   2.2277   2.7099   3.0487

          k = 0.3750 0.4375 0.0000 (  8527 PWs)   bands (ev):

    -5.2943  -4.8980  -4.2654  -4.1775  -3.7843  -3.3866  -3.1579  -3.0697
    -2.6780  -2.3029  -2.2972  -2.0286  -1.9716  -1.5743  -1.2434  -1.1264
    -1.0446  -0.8939  -0.1195  -0.0953   0.1213   0.5187   0.9731   1.1537
     1.6257   2.2490   2.2731   2.6210   3.2956

          k = 0.3750-0.5000 0.0000 (  8516 PWs)   bands (ev):

    -4.7696  -4.7696  -4.3746  -4.3746  -3.7445  -3.7445  -2.8707  -2.8707
    -2.5521  -2.5521  -2.1720  -2.1719  -1.7662  -1.7662  -1.5362  -1.5362
    -0.6671  -0.6671  -0.4734  -0.4734   0.4083   0.4083   1.0063   1.0064
     1.7066   1.7067   2.6991   2.6991   3.2777

          k = 0.4375 0.4375 0.0000 (  8530 PWs)   bands (ev):

    -4.8394  -4.4441  -3.8136  -3.7263  -3.7263  -3.3346  -3.3346  -2.9395
    -2.7101  -2.7101  -2.6203  -2.2397  -1.8346  -1.8279  -1.8279  -1.6036
    -0.7467  -0.7467  -0.7348  -0.5416   0.3409   0.5408   0.5408   0.9388
     1.6402   2.0293   2.0293   2.6324   3.2127

          k = 0.4375-0.5000 0.0000 (  8546 PWs)   bands (ev):

    -4.3165  -4.3165  -3.9227  -3.9227  -3.2958  -3.2958  -3.2070  -3.2070
    -2.8150  -2.8149  -2.4397  -2.4396  -2.1654  -2.1654  -1.3764  -1.3764
    -1.2655  -1.2655  -0.2550  -0.2550  -0.0132  -0.0132   1.0201   1.0202
     1.4928   1.4928   2.4893   2.4893   3.2774

          k =-0.5000-0.5000 0.0000 (  8532 PWs)   bands (ev):

    -3.7955  -3.7955  -3.7955  -3.7955  -3.4035  -3.4035  -3.4035  -3.4035
    -2.7783  -2.7783  -2.7783  -2.7783  -1.8960  -1.8959  -1.8959  -1.8959
    -0.8148  -0.8148  -0.8148  -0.8148   0.4737   0.4737   0.4737   0.4737
     1.9631   1.9631   1.9631   1.9631   3.6935

     the Fermi energy is     2.8248 ev

!    total energy              =    -199.30631373 Ry
     Harris-Foulkes estimate   =    -199.30631374 Ry
     estimated scf accuracy    <          8.3E-09 Ry

     The total energy is the sum of the following terms:

     one-electron contribution =    -767.60938131 Ry
     hartree contribution      =     398.63096315 Ry
     xc contribution           =    -160.12158640 Ry
     ewald contribution        =     329.79381678 Ry
     smearing contrib. (-TS)   =      -0.00012596 Ry

     convergence has been achieved in  10 iterations

     Forces acting on atoms (Ry/au):

     atom    1 type  1   force =     0.00000000    0.00000000   -0.00238988
     atom    2 type  1   force =     0.00000000    0.00000000   -0.00239005
     atom    3 type  1   force =     0.00000000    0.00000000    0.00154639
     atom    4 type  1   force =     0.00000000    0.00000000    0.00154639
     atom    5 type  1   force =     0.00000000    0.00000000    0.00130645
     atom    6 type  1   force =     0.00000000    0.00000000    0.00130767
     atom    7 type  1   force =     0.00000000    0.00000000    0.00100601
     atom    8 type  1   force =     0.00000000    0.00000000    0.00100601
     atom    9 type  1   force =     0.00000000    0.00000000   -0.00100702
     atom   10 type  1   force =     0.00000000    0.00000000   -0.00100537
     atom   11 type  1   force =     0.00000000    0.00000000   -0.00130692
     atom   12 type  1   force =     0.00000000    0.00000000   -0.00130692
     atom   13 type  1   force =     0.00000000    0.00000000   -0.00154593
     atom   14 type  1   force =     0.00000000    0.00000000   -0.00154676
     atom   15 type  1   force =     0.00000000    0.00000000    0.00238996
     atom   16 type  1   force =     0.00000000    0.00000000    0.00238996

     Total force =     0.006580     Total SCF correction =     0.000166


     entering subroutine stress ...

          total   stress  (Ry/bohr**3)                   (kbar)     P=   -8.75
  -0.00008073   0.00000000   0.00000000        -11.88      0.00      0.00
   0.00000000  -0.00008073   0.00000000          0.00    -11.88      0.00
   0.00000000   0.00000000  -0.00001696          0.00      0.00     -2.49


     number of scf cycles    =   3
     number of bfgs steps    =   2

     energy   old            =    -199.3062502538 Ry
     energy   new            =    -199.3063137302 Ry

     CASE: energy  _new < energy  _old

     new trust radius        =       0.0049207141 bohr
     new conv_thr            =       0.0000000100 Ry


ATOMIC_POSITIONS (crystal)
Al       0.000000000   0.000000000  -0.000210042
Al       0.500000000   0.500000000  -0.000210055
Al       0.500000000   0.000000000   0.071574963
Al       0.000000000   0.500000000   0.071574963
Al       0.000000000   0.000000000   0.142957340
Al       0.500000000   0.500000000   0.142957440
Al       0.500000000   0.000000000   0.214376782
Al       0.000000000   0.500000000   0.214376782
Al       0.000000000   0.000000000   0.285623139
Al       0.500000000   0.500000000   0.285623271
Al       0.500000000   0.000000000   0.357042572
Al       0.000000000   0.500000000   0.357042572
Al       0.000000000   0.000000000   0.428425089
Al       0.500000000   0.500000000   0.428425030
Al       0.500000000   0.000000000   0.500210077
Al       0.000000000   0.500000000   0.500210077



     Writing output data file Al_100_4_3.save
     NEW-OLD atomic charge density approx. for the potential

     total cpu time spent up to now is     1817.8 secs

     per-process dynamical memory:   242.8 Mb

     Self-consistent Calculation

     iteration #  1     ecut=    30.00 Ry     beta=0.30
     Davidson diagonalization with overlap
     ethr =  1.00E-06,  avg # of iterations =  2.1

     Threshold (ethr) on eigenvalues was too large:
     Diagonalizing with lowered threshold

     Davidson diagonalization with overlap
     ethr =  2.57E-08,  avg # of iterations =  3.7

     total cpu time spent up to now is     1934.2 secs

     total energy              =    -199.30639585 Ry
     Harris-Foulkes estimate   =    -199.30639726 Ry
     estimated scf accuracy    <       0.00002522 Ry

     iteration #  2     ecut=    30.00 Ry     beta=0.30
     Davidson diagonalization with overlap
     ethr =  5.25E-08,  avg # of iterations =  1.0

     negative rho (up, down):  1.317E-08 0.000E+00

     total cpu time spent up to now is     1978.3 secs

     total energy              =    -199.30639259 Ry
     Harris-Foulkes estimate   =    -199.30639601 Ry
     estimated scf accuracy    <       0.00001504 Ry

     iteration #  3     ecut=    30.00 Ry     beta=0.30
     Davidson diagonalization with overlap
     ethr =  3.13E-08,  avg # of iterations =  2.5

     total cpu time spent up to now is     2031.9 secs

     total energy              =    -199.30639444 Ry
     Harris-Foulkes estimate   =    -199.30639465 Ry
     estimated scf accuracy    <       0.00000131 Ry

     iteration #  4     ecut=    30.00 Ry     beta=0.30
     Davidson diagonalization with overlap
     ethr =  2.73E-09,  avg # of iterations =  2.3

[...]
    -1.0875  -0.4907  -0.4725   0.1059   0.3781   0.5083   0.5913   1.1057
     1.3973   1.4724   1.9261   1.9378   2.4400   2.8056   2.9557   3.0126
     3.0539   3.3766   3.4488   4.1029   4.1902

          k = 0.0000 0.1875 0.0000 (  8599 PWs)   bands (ev):

    -7.9864  -7.5550  -6.9096  -6.0159  -4.9233  -3.6094  -2.4017  -2.0927
    -1.9836  -1.3624  -0.5022  -0.3196   0.2699   0.5439   0.6727   0.7567
     1.2701   1.6047   1.8391   2.0682   2.1022   2.7598   3.1197   3.1754
     3.3067   3.5991   4.2568   4.3569   4.4622

          k = 0.0000 0.2500 0.0000 (  8583 PWs)   bands (ev):

    -7.7367  -7.3058  -6.6614  -5.7691  -4.6780  -3.3658  -3.2531  -2.8329
    -2.2065  -1.8517  -1.3395  -0.2826  -0.0807   0.5003   0.9029   0.9794
     0.9887   1.4999   1.8917   2.1893   2.3319   2.6258   2.9841   3.3491
     3.3986   3.8289   4.1910   4.5857   4.7061

          k = 0.0000 0.3125 0.0000 (  8545 PWs)   bands (ev):

    -7.4163  -6.9861  -6.3430  -5.4523  -4.3634  -4.0452  -3.6229  -3.0537
    -2.9931  -2.1211  -1.5424  -1.0565   0.2209   0.2257   0.7955   1.1983
     1.2861   1.6699   1.7954   2.1715   2.6276   2.6946   3.2743   3.5111
     3.6444   3.6712   3.9501   4.0945   4.3530

          k = 0.0000 0.3750 0.0000 (  8532 PWs)   bands (ev):

    -7.0254  -6.5963  -5.9547  -5.0661  -4.7747  -4.3508  -3.9797  -3.7180
    -2.8414  -2.6733  -1.7708  -1.1659  -0.4847   0.5979   0.9918   1.1571
     1.5600   1.6495   2.1572   2.4085   2.9409   2.9893   3.0449   3.2599
     3.6629   3.6630   3.7301   3.9429   4.0056

          k = 0.0000 0.4375 0.0000 (  8540 PWs)   bands (ev):

    -6.5651  -6.1370  -5.4973  -5.4387  -5.0133  -4.6112  -4.3780  -3.5278
    -3.4978  -2.4221  -2.2249  -1.1291  -0.7224   0.3593   1.0337   1.5839
     1.9869   2.0634   2.0777   2.5841   2.6354   3.0385   3.0856   3.1239
     3.4160   3.4732   3.6352   3.9295   4.0935

          k = 0.0000-0.5000 0.0000 (  8538 PWs)   bands (ev):

    -6.0359  -6.0358  -5.6090  -5.6090  -4.9715  -4.9715  -4.0880  -4.0880
    -3.0080  -3.0080  -1.7099  -1.7099  -0.2136  -0.2136   1.5288   1.5288
     2.0768   2.0768   2.4798   2.4799   2.5698   2.5698   3.0768   3.0768
     3.5191   3.5191   3.9085   3.9085   3.9636

          k = 0.0625 0.0625 0.0000 (  8583 PWs)   bands (ev):

    -8.2366  -7.8045  -7.1581  -6.2631  -5.1689  -3.8530  -2.3343  -0.5637
    -0.5637  -0.5595  -0.1553  -0.1553   0.4504   0.4504   0.5249   1.2967
     1.2967   2.0035   2.0035   2.2803   2.2803   2.4667   2.4667   2.9465
     3.0021   3.0021   3.6081   3.6081   3.9378

          k = 0.0625 0.1250 0.0000 (  8586 PWs)   bands (ev):

    -8.1294  -7.6975  -7.0516  -6.1571  -5.0635  -3.7486  -2.2308  -1.4677
    -1.0544  -0.4636  -0.4568  -0.4400  -0.0547   0.3912   0.5781   0.6243
     1.3593   1.4973   2.0978   2.4248   2.5270   2.6952   3.0443   3.0852
     3.1954   3.5029   3.6501   3.8993   4.1985

          k = 0.0625 0.1875 0.0000 (  8596 PWs)   bands (ev):

    -7.9508  -7.5194  -6.8741  -5.9806  -4.8882  -3.5746  -2.3672  -2.0584
    -1.9497  -1.3287  -0.4704  -0.2962  -0.2857   0.1067   0.5870   0.7229
     0.7898   1.5732   1.8345   2.2882   2.6003   2.6641   3.2040   3.3459
     3.3629   3.8448   4.1660   4.3042   4.6540

          k = 0.0625 0.2500 0.0000 (  8569 PWs)   bands (ev):

    -7.7011  -7.2703  -6.6260  -5.7339  -4.6430  -3.3311  -3.2183  -2.7980
    -2.1721  -1.8172  -1.3059  -0.2525  -0.0640  -0.0467   0.3521   0.9117
     1.0217   1.0732   1.8027   2.4433   2.5039   2.8300   3.0208   3.4109
     3.5773   4.0718   4.2307   4.2558   4.4077

          k = 0.0625 0.3125 0.0000 (  8533 PWs)   bands (ev):

    -7.3807  -6.9506  -6.3076  -5.4172  -4.3285  -4.0104  -3.5882  -3.0189
    -2.9586  -2.0870  -1.5080  -1.0231   0.2018   0.2592   0.2895   0.6453
     1.2645   1.3192   1.7291   2.1056   2.7624   3.1177   3.2795   3.3586
     3.5685   3.8145   3.8248   3.8896   4.2945

          k = 0.0625 0.3750 0.0000 (  8531 PWs)   bands (ev):

    -6.9900  -6.5609  -5.9195  -5.0311  -4.7398  -4.3159  -3.9450  -3.6832
    -2.8069  -2.6387  -1.7367  -1.1316  -0.4520   0.6038   0.6303   0.9362
     1.1146   1.6269   1.6821   2.4667   2.6933   2.7254   3.1387   3.2913
     3.5120   3.6376   3.7392   3.7707   4.0893

          k = 0.0625 0.4375 0.0000 (  8517 PWs)   bands (ev):

    -6.5297  -6.1017  -5.4622  -5.4036  -4.9783  -4.5762  -4.3431  -3.4930
    -3.4631  -2.3877  -2.1904  -1.0955  -0.6885   0.3896   1.0304   1.0619
     1.4586   2.0508   2.1095   2.1118   2.1480   2.5137   2.8857   3.1169
     3.1729   3.6470   3.9305   3.9577   4.0631

          k = 0.0625-0.5000 0.0000 (  8546 PWs)   bands (ev):

    -6.0006  -6.0006  -5.5739  -5.5739  -4.9364  -4.9364  -4.0531  -4.0531
    -2.9735  -2.9735  -1.6756  -1.6756  -0.1805  -0.1805   1.4420   1.4420
     1.6701   1.6702   1.9522   1.9523   2.5559   2.5560   2.5990   2.5990
     3.4004   3.4004   4.0740   4.0740   4.4202

          k = 0.1250 0.1250 0.0000 (  8581 PWs)   bands (ev):

    -8.0222  -7.5906  -6.9450  -6.0512  -4.9583  -3.6442  -2.1274  -1.3662
    -1.3662  -0.9535  -0.9535  -0.3542  -0.3411  -0.3411   0.5224   0.5224
     0.7234   1.5676   1.5676   2.8014   2.8014   3.1375   3.2019   3.2019
     3.5806   3.5806   4.2186   4.2186   4.3162

          k = 0.1250 0.1875 0.0000 (  8562 PWs)   bands (ev):

    -7.8437  -7.4125  -6.7677  -5.8748  -4.7830  -3.4701  -2.2641  -1.9550
    -1.8474  -1.2283  -1.1970  -0.7839  -0.3912  -0.1835  -0.1384   0.6168
     0.7693   0.8891   1.7252   1.9638   2.9654   3.2767   3.3528   3.3789
     3.8569   4.2023   4.3667   4.3885   4.3988

          k = 0.1250 0.2500 0.0000 (  8568 PWs)   bands (ev):

    -7.5943  -7.1637  -6.5198  -5.6283  -4.5381  -3.2269  -3.1146  -2.6947
    -2.0698  -1.7142  -1.2065  -0.9598  -0.5569  -0.1347   0.0545   0.0718
     0.9332   1.1206   1.1356   1.9714   2.5792   3.2066   3.2360   3.5527
     3.6911   3.7155   4.0452   4.3163   4.3336

          k = 0.1250 0.3125 0.0000 (  8539 PWs)   bands (ev):

    -7.2741  -6.8442  -6.2017  -5.3118  -4.2237  -3.9063  -3.4845  -2.9150
    -2.8554  -1.9847  -1.4054  -0.9258  -0.6574  -0.2353   0.2875   0.3587
     0.4577   1.2299   1.4175   1.8422   2.2660   2.5476   2.9688   3.4882
     3.5170   3.5707   3.9008   4.0033   4.3352

          k = 0.1250 0.3750 0.0000 (  8523 PWs)   bands (ev):

    -6.8836  -6.4548  -5.8138  -4.9260  -4.6350  -4.2114  -3.8405  -3.5792
    -2.7036  -2.5350  -1.6350  -1.0294  -0.3788  -0.2573   0.1259   0.7241
     0.7555   1.1442   1.6048   1.7794   1.8742   2.2778   2.5962   2.8849
     2.9161   3.7317   3.7481   4.0400   4.2218

          k = 0.1250 0.4375 0.0000 (  8525 PWs)   bands (ev):

    -6.4238  -5.9960  -5.3568  -5.2984  -4.8733  -4.4715  -4.2386  -3.3889
    -3.3591  -2.2847  -2.0873  -0.9950  -0.5876   0.1517   0.4259   0.6470
     1.0651   1.1873   1.3421   1.6484   2.0331   2.2029   2.2448   2.2565
     3.0876   3.1083   3.2529   4.1224   4.3479

          k = 0.1250-0.5000 0.0000 (  8522 PWs)   bands (ev):

    -5.8950  -5.8950  -5.4685  -5.4685  -4.8314  -4.8314  -3.9487  -3.9487
    -2.8698  -2.8698  -1.5734  -1.5734  -0.0830  -0.0830   0.6449   0.6449
     1.0853   1.0853   1.6578   1.6578   1.7292   1.7292   2.5056   2.5056
     2.7323   2.7323   3.5744   3.5744   4.8300

          k = 0.1875 0.1875 0.0000 (  8563 PWs)   bands (ev):

    -7.6655  -7.2347  -6.5906  -5.6986  -4.6080  -3.2964  -2.0932  -2.0932
    -1.7831  -1.6775  -1.6775  -1.0607  -1.0607  -0.1882  -0.1882  -0.0137
     0.8653   0.8653   1.0545   2.1228   2.1228   3.1483   3.5729   3.5729
     3.6410   3.6675   4.2875   4.5272   4.5272

          k = 0.1875 0.2500 0.0000 (  8550 PWs)   bands (ev):

    -7.4163  -6.9862  -6.3430  -5.4523  -4.3634  -3.0538  -2.9419  -2.5230
    -1.9003  -1.8540  -1.5429  -1.4383  -1.0584  -0.7874  -0.0330   0.1154
     0.2222   1.0847   1.2851   1.3187   2.3364   2.4381   2.7944   2.8619
     3.4644   3.7787   3.7836   4.3149   4.4578

          k = 0.1875 0.3125 0.0000 (  8543 PWs)   bands (ev):

    -7.0965  -6.6671  -6.0252  -5.1363  -4.0494  -3.7329  -3.3114  -2.7423
    -2.6834  -1.8159  -1.5467  -1.2348  -1.1424  -0.7368  -0.5078   0.3576
     0.5201   0.5380   1.4036   1.5805   1.7022   1.9972   2.1068   2.6783
     2.7160   3.5655   3.6661   4.0460   4.2112

          k = 0.1875 0.3750 0.0000 (  8512 PWs)   bands (ev):

    -6.7066  -6.2782  -5.6378  -4.7509  -4.4608  -4.0375  -3.6666  -3.4059
    -2.5317  -2.3627  -1.4684  -1.1746  -0.8601  -0.7497  -0.2363  -0.0663
     0.7227   0.8023   1.0971   1.3150   1.4108   1.7650   1.9384   2.0212
     2.8769   3.0222   3.0511   3.8927   4.0699

          k = 0.1875 0.4375 0.0000 (  8506 PWs)   bands (ev):

    -6.2472  -5.8199  -5.1813  -5.1233  -4.6985  -4.2969  -4.0644  -3.2158
    -3.1862  -2.1138  -1.9161  -0.8484  -0.7082  -0.4218  -0.3188   0.3140
     0.3357   0.6762   0.7795   1.1686   1.3357   1.4168   2.1560   2.1969
     2.4121   2.4812   3.2798   3.2959   3.6132

          k = 0.1875-0.5000 0.0000 (  8526 PWs)   bands (ev):

    -5.7191  -5.7191  -5.2931  -5.2930  -4.6567  -4.6566  -3.7750  -3.7749
    -2.6975  -2.6975  -1.4040  -1.4040  -0.2256  -0.2256   0.0295   0.0295
     0.2640   0.2640   0.8151   0.8152   1.6646   1.6646   1.8505   1.8505
     2.7266   2.7266   2.8588   2.8588   3.9927

          k = 0.2500 0.2500 0.0000 (  8533 PWs)   bands (ev):

    -7.1675  -6.7379  -6.0957  -5.2063  -4.1190  -2.8116  -2.7011  -2.7011
    -2.2832  -2.2832  -1.6629  -1.6629  -1.3033  -0.7855  -0.7855   0.2712
     0.2712   0.4523   1.5146   1.5374   1.5374   1.6426   2.0472   2.6566
     3.0041   3.0041   3.5074   3.9839   4.5603

          k = 0.2500 0.3125 0.0000 (  8542 PWs)   bands (ev):

    -6.8483  -6.4195  -5.7785  -4.8909  -3.8057  -3.4902  -3.0697  -2.5008
    -2.4443  -2.3922  -1.9743  -1.5976  -1.3212  -0.9968  -0.5595  -0.4235
     0.5567   0.6698   0.7915   0.9703   1.2872   1.8057   1.8152   1.8986
     2.2770   2.7555   3.2677   3.7720   4.0384

          k = 0.2500 0.3750 0.0000 (  8516 PWs)   bands (ev):

    -6.4590  -6.0312  -5.3919  -4.5063  -4.2168  -3.7942  -3.4237  -3.1640
    -2.2933  -2.1223  -2.0143  -1.6088  -1.2100  -0.9709  -0.6257  -0.1041
     0.0670   0.1444   0.5891   0.9477   1.1370   1.2254   1.5332   2.0055
     2.2181   2.2289   3.0951   3.2192   3.7778

          k = 0.2500 0.4375 0.0000 (  8530 PWs)   bands (ev):

    -6.0005  -5.5737  -4.9361  -4.8784  -4.4542  -4.0531  -3.8211  -2.9739
    -2.9446  -1.8776  -1.6778  -1.5726  -1.1462  -0.6333  -0.4851  -0.4697
    -0.2366   0.0005   0.3303   0.5580   0.9141   1.3766   1.4096   1.5830
     2.4757   2.5950   2.6382   2.6612   3.6787

          k = 0.2500-0.5000 0.0000 (  8542 PWs)   bands (ev):

    -5.4733  -5.4733  -5.0478  -5.0478  -4.4123  -4.4123  -3.5322  -3.5322
    -2.4573  -2.4573  -1.1867  -1.1867  -1.0387  -1.0387  -0.6459  -0.6459
    -0.0120  -0.0120   0.3382   0.3382   0.8459   0.8459   1.8311   1.8312
     2.1559   2.1559   2.9684   2.9684   3.2975

          k = 0.3125 0.3125 0.0000 (  8538 PWs)   bands (ev):

    -6.5298  -6.1017  -5.4621  -4.5762  -3.4932  -3.1790  -3.1790  -2.7599
    -2.7599  -2.1913  -2.1372  -2.1372  -1.2564  -1.2564  -0.6940  -0.1976
    -0.1976   0.0799   0.5248   1.0698   1.0746   1.0746   1.1609   1.9410
     2.1527   2.5484   2.5484   3.0326   4.2681

          k = 0.3125 0.3750 0.0000 (  8528 PWs)   bands (ev):

    -6.1413  -5.7143  -5.0762  -4.1923  -3.9040  -3.4825  -3.1121  -2.8550
    -2.7998  -2.3806  -2.0047  -1.8147  -1.7267  -0.9569  -0.8343  -0.6160
    -0.3697  -0.1327   0.1550   0.3917   0.4278   1.2806   1.4187   1.4486
     1.8826   2.3487   2.4630   2.8768   3.6203

          k = 0.3125 0.4375 0.0000 (  8526 PWs)   bands (ev):

    -5.6838  -5.2578  -4.6214  -4.5642  -4.1408  -3.7401  -3.5093  -2.6638
    -2.6365  -2.3524  -1.9452  -1.5504  -1.3902  -1.3057  -1.2389  -0.8443
    -0.4378  -0.2719  -0.2105   0.1346   0.6176   0.6496   1.1988   1.6340
     1.9028   1.9587   2.7713   2.8906   3.1056

          k = 0.3125-0.5000 0.0000 (  8514 PWs)   bands (ev):

    -5.1578  -5.1578  -4.7329  -4.7329  -4.0987  -4.0987  -3.2209  -3.2209
    -2.1516  -2.1516  -1.8409  -1.8409  -1.4139  -1.4138  -0.8993  -0.8993
    -0.7424  -0.7424   0.0650   0.0650   0.6451   0.6452   1.1144   1.1145
     2.3789   2.3789   2.3963   2.3963   3.4168

          k = 0.3750 0.3750 0.0000 (  8518 PWs)   bands (ev):

    -5.7540  -5.3279  -4.6913  -3.8096  -3.5224  -3.5224  -3.1024  -3.1024
    -2.7328  -2.4778  -2.4778  -1.5952  -1.5952  -1.4579  -1.3057  -0.9105
    -0.5350  -0.5350  -0.2769   0.0668   0.5841   0.7410   0.7410   1.5684
     1.8929   2.2192   2.2192   2.7058   3.0416

          k = 0.3750 0.4375 0.0000 (  8527 PWs)   bands (ev):

    -5.2977  -4.8726  -4.2379  -4.1810  -3.7588  -3.3592  -3.1300  -3.0732
    -2.6532  -2.2890  -2.2771  -1.9991  -1.9757  -1.5482  -1.2225  -1.1106
    -1.0327  -0.8795  -0.1148  -0.0686   0.1238   0.5106   0.9823   1.1521
     1.6176   2.2483   2.2636   2.6136   3.2858

          k = 0.3750-0.5000 0.0000 (  8516 PWs)   bands (ev):

    -4.7730  -4.7730  -4.3492  -4.3491  -3.7170  -3.7170  -2.8432  -2.8432
    -2.5561  -2.5561  -2.1481  -2.1480  -1.7557  -1.7556  -1.5079  -1.5078
    -0.6398  -0.6398  -0.4759  -0.4759   0.4180   0.4181   0.9975   0.9975
     1.7056   1.7057   2.6918   2.6919   3.2646

          k = 0.4375 0.4375 0.0000 (  8530 PWs)   bands (ev):

    -4.8428  -4.4186  -3.7861  -3.7297  -3.7297  -3.3090  -3.3090  -2.9119
    -2.6833  -2.6833  -2.6244  -2.2158  -1.8241  -1.7994  -1.7994  -1.5752
    -0.7387  -0.7387  -0.7075  -0.5441   0.3506   0.5400   0.5400   0.9300
     1.6392   2.0208   2.0208   2.6252   3.1996

          k = 0.4375-0.5000 0.0000 (  8546 PWs)   bands (ev):

    -4.3199  -4.3199  -3.8972  -3.8972  -3.2680  -3.2680  -3.2105  -3.2105
    -2.7902  -2.7902  -2.4138  -2.4138  -2.1359  -2.1359  -1.3558  -1.3558
    -1.2496  -1.2496  -0.2504  -0.2504  -0.0106  -0.0106   1.0185   1.0185
     1.4847   1.4847   2.4819   2.4819   3.2654

          k =-0.5000-0.5000 0.0000 (  8532 PWs)   bands (ev):

    -3.7989  -3.7989  -3.7989  -3.7989  -3.3779  -3.3779  -3.3779  -3.3779
    -2.7515  -2.7514  -2.7514  -2.7514  -1.8675  -1.8675  -1.8675  -1.8675
    -0.8068  -0.8068  -0.8068  -0.8068   0.4729   0.4729   0.4729   0.4729
     1.9546   1.9546   1.9546   1.9546   3.6849

     the Fermi energy is     2.8305 ev

!    total energy              =    -199.30657733 Ry
     Harris-Foulkes estimate   =    -199.30657733 Ry
     estimated scf accuracy    <          2.2E-09 Ry

     The total energy is the sum of the following terms:

     one-electron contribution =    -766.98734937 Ry
     hartree contribution      =     398.32711071 Ry
     xc contribution           =    -160.10677180 Ry
     ewald contribution        =     329.46052255 Ry
     smearing contrib. (-TS)   =      -0.00008942 Ry

     convergence has been achieved in   9 iterations

     Forces acting on atoms (Ry/au):

     atom    1 type  1   force =     0.00000000    0.00000000    0.00003903
     atom    2 type  1   force =     0.00000000    0.00000000    0.00003898
     atom    3 type  1   force =     0.00000000    0.00000000   -0.00070556
     atom    4 type  1   force =     0.00000000    0.00000000   -0.00070556
     atom    5 type  1   force =     0.00000000    0.00000000    0.00076045
     atom    6 type  1   force =     0.00000000    0.00000000    0.00076058
     atom    7 type  1   force =     0.00000000    0.00000000   -0.00008230
     atom    8 type  1   force =     0.00000000    0.00000000   -0.00008230
     atom    9 type  1   force =     0.00000000    0.00000000    0.00008226
     atom   10 type  1   force =     0.00000000    0.00000000    0.00008242
     atom   11 type  1   force =     0.00000000    0.00000000   -0.00076039
     atom   12 type  1   force =     0.00000000    0.00000000   -0.00076039
     atom   13 type  1   force =     0.00000000    0.00000000    0.00070553
     atom   14 type  1   force =     0.00000000    0.00000000    0.00070532
     atom   15 type  1   force =     0.00000000    0.00000000   -0.00003905
     atom   16 type  1   force =     0.00000000    0.00000000   -0.00003905

     Total force =     0.002083     Total SCF correction =     0.000079


     entering subroutine stress ...

          total   stress  (Ry/bohr**3)                   (kbar)     P=   -9.47
  -0.00008427   0.00000000   0.00000000        -12.40      0.00      0.00
   0.00000000  -0.00008427   0.00000000          0.00    -12.40      0.00
   0.00000000   0.00000000  -0.00002450          0.00      0.00     -3.60


     bfgs converged in   7 scf cycles and   6 bfgs steps
     (criteria: energy <  1.0E-04, force <  1.0E-03)

     End of BFGS Geometry Optimization

     Final energy   =    -199.3065773322 Ry
Begin final coordinates

ATOMIC_POSITIONS (crystal)
Al       0.000000000   0.000000000  -0.000668115
Al       0.500000000   0.500000000  -0.000668160
Al       0.500000000   0.000000000   0.071830536
Al       0.000000000   0.500000000   0.071830536
Al       0.000000000   0.000000000   0.143257769
Al       0.500000000   0.500000000   0.143258108
Al       0.500000000   0.000000000   0.214563550
Al       0.000000000   0.500000000   0.214563550
Al       0.000000000   0.000000000   0.285436188
Al       0.500000000   0.500000000   0.285436639
Al       0.500000000   0.000000000   0.356742033
Al       0.000000000   0.500000000   0.356742033
Al       0.000000000   0.000000000   0.428169599
Al       0.500000000   0.500000000   0.428169381
Al       0.500000000   0.000000000   0.500668176
Al       0.000000000   0.500000000   0.500668176
End final coordinates



     Writing output data file Al_100_4_3.save

     init_run     :     40.08s CPU     45.77s WALL (       1 calls)
     electrons    :   2890.80s CPU   3403.04s WALL (       7 calls)
     update_pot   :      3.55s CPU      3.69s WALL (       6 calls)
     forces       :     56.92s CPU     57.28s WALL (       7 calls)
     stress       :     92.09s CPU     92.78s WALL (       7 calls)

     Called by init_run:
     wfcinit      :     38.84s CPU     44.49s WALL (       1 calls)
     potinit      :      0.32s CPU      0.35s WALL (       1 calls)

     Called by electrons:
     c_bands      :   2461.72s CPU   2879.89s WALL (      67 calls)
     sum_band     :    362.35s CPU    447.24s WALL (      67 calls)
     v_of_rho     :     12.20s CPU     13.12s WALL (      72 calls)
     newd         :     13.35s CPU     13.50s WALL (      72 calls)
     mix_rho      :     42.51s CPU     50.61s WALL (      67 calls)

     Called by c_bands:
     init_us_2    :     19.78s CPU     23.37s WALL (    6705 calls)
     cegterg      :   2436.69s CPU   2850.53s WALL (    3015 calls)

     Called by *egterg:
     h_psi        :   1564.31s CPU   1933.97s WALL (   10019 calls)
     s_psi        :    236.00s CPU    240.10s WALL (   10019 calls)
     g_psi        :      4.41s CPU      5.04s WALL (    6959 calls)
     cdiaghg      :     20.89s CPU     22.94s WALL (    9614 calls)

     Called by h_psi:
     add_vuspsi   :    236.66s CPU    239.73s WALL (   10019 calls)

     General routines
     calbec       :    372.69s CPU    380.50s WALL (   13664 calls)
     fft          :      9.64s CPU     11.00s WALL (    1313 calls)
     ffts         :     26.21s CPU     31.90s WALL (    7665 calls)
     fftw         :   1230.03s CPU   1639.76s WALL (  493751 calls)
     interpolate  :      1.55s CPU      1.88s WALL (     139 calls)
     davcio       :      0.03s CPU      0.11s WALL (      45 calls)

     Parallel routines
     fft_scatter  :     45.47s CPU     66.31s WALL (  502729 calls)

     PWSCF        :     0h51m CPU        1h 0m WALL


   This run was terminated on:   2:27:13  27May2020            

=------------------------------------------------------------------------------=
   JOB DONE.
=------------------------------------------------------------------------------=
