--------------------------------------------------------------------------
[[19348,1],0]: A high-performance Open MPI point-to-point messaging module
was unable to find any relevant network interfaces:

Module: OpenFabrics (openib)
  Host: ubuntu

Another transport will be used instead, although this may result in
lower performance.
--------------------------------------------------------------------------

     Program PWSCF v.5.1 starts on 28May2020 at 19:24: 3 

     This program is part of the open-source Quantum ESPRESSO suite
     for quantum simulation of materials; please cite
         "P. Giannozzi et al., J. Phys.:Condens. Matter 21 395502 (2009);
          URL http://www.quantum-espresso.org", 
     in publications or presentations arising from this work. More details at
     http://www.quantum-espresso.org/quote

     Parallel version (MPI), running on     1 processors
     Reading input from Al_100_surf_vac_4.pw.in

     Current dimensions of program PWSCF are:
     Max number of different atomic species (ntypx) = 10
     Max number of k-points (npk) =  40000
     Max angular momentum in pseudopotentials (lmaxx) =  3

     Subspace diagonalization in iterative solution of the eigenvalue problem:
     a serial algorithm will be used

     Found symmetry operation: I + ( -0.5000 -0.5000  0.0000)
     This is a supercell, fractional translations are disabled

     G-vector sticks info
     --------------------
     sticks:   dense  smooth     PW     G-vecs:    dense   smooth      PW
     Sum         681     681    421                81697    81697   38623



     bravais-lattice index     =            6
     lattice parameter (alat)  =       7.6050  a.u.
     unit-cell volume          =    2639.0578 (a.u.)^3
     number of atoms/cell      =            8
     number of atomic types    =            1
     number of electrons       =        24.00
     number of Kohn-Sham states=           16
     kinetic-energy cutoff     =      80.0000  Ry
     charge density cutoff     =     150.0000  Ry
     convergence threshold     =      1.0E-06
     mixing beta               =       0.3000
     number of iterations used =            8  local-TF  mixing
     Exchange-correlation      =  SLA  PW   PBE  PBE ( 1  4  3  4 0)
     nstep                     =           50


     celldm(1)=   7.605000  celldm(2)=   0.000000  celldm(3)=   6.000000
     celldm(4)=   0.000000  celldm(5)=   0.000000  celldm(6)=   0.000000

     crystal axes: (cart. coord. in units of alat)
               a(1) = (   1.000000   0.000000   0.000000 )  
               a(2) = (   0.000000   1.000000   0.000000 )  
               a(3) = (   0.000000   0.000000   6.000000 )  

     reciprocal axes: (cart. coord. in units 2 pi/alat)
               b(1) = (  1.000000  0.000000  0.000000 )  
               b(2) = (  0.000000  1.000000  0.000000 )  
               b(3) = (  0.000000  0.000000  0.166667 )  


     PseudoPot. # 1 for Al read from file:
     ./Al.pbe-n-van.UPF
     MD5 check sum: b11ded24487aef5bc42d5c7a2e22a7b6
     Pseudo is Ultrasoft + core correction, Zval =  3.0
     Generated by new atomic code, or converted to UPF format
     Using radial grid of  893 points,  2 beta functions with: 
                l(1) =   0
                l(2) =   1
     Q(r) pseudized with  8 coefficients,  rinner =    0.900   0.900   0.900


     atomic species   valence    mass     pseudopotential
        Al             3.00    26.98000     Al( 1.00)

      8 Sym. Ops. (no inversion) found



   Cartesian axes

     site n.     atom                  positions (alat units)
         1           Al  tau(   1) = (   0.0000000   0.0000000   0.0000000  )
         2           Al  tau(   2) = (   0.5000000   0.5000000   0.0000000  )
         3           Al  tau(   3) = (   0.5000000   0.0000000   0.5000000  )
         4           Al  tau(   4) = (   0.0000000   0.5000000   0.5000000  )
         5           Al  tau(   5) = (   0.0000000   0.0000000   1.0000000  )
         6           Al  tau(   6) = (   0.5000000   0.5000000   1.0000000  )
         7           Al  tau(   7) = (   0.5000000   0.0000000   1.5000000  )
         8           Al  tau(   8) = (   0.0000000   0.5000000   1.5000000  )

     number of k points=    45  Marzari-Vanderbilt smearing, width (Ry)=  0.0250
                       cart. coord. in units 2pi/alat
        k(    1) = (   0.0000000   0.0000000   0.0000000), wk =   0.0078125
        k(    2) = (   0.0000000   0.0625000   0.0000000), wk =   0.0312500
        k(    3) = (   0.0000000   0.1250000   0.0000000), wk =   0.0312500
        k(    4) = (   0.0000000   0.1875000   0.0000000), wk =   0.0312500
        k(    5) = (   0.0000000   0.2500000   0.0000000), wk =   0.0312500
        k(    6) = (   0.0000000   0.3125000   0.0000000), wk =   0.0312500
        k(    7) = (   0.0000000   0.3750000   0.0000000), wk =   0.0312500
        k(    8) = (   0.0000000   0.4375000   0.0000000), wk =   0.0312500
        k(    9) = (   0.0000000  -0.5000000   0.0000000), wk =   0.0156250
        k(   10) = (   0.0625000   0.0625000   0.0000000), wk =   0.0312500
        k(   11) = (   0.0625000   0.1250000   0.0000000), wk =   0.0625000
        k(   12) = (   0.0625000   0.1875000   0.0000000), wk =   0.0625000
        k(   13) = (   0.0625000   0.2500000   0.0000000), wk =   0.0625000
        k(   14) = (   0.0625000   0.3125000   0.0000000), wk =   0.0625000
        k(   15) = (   0.0625000   0.3750000   0.0000000), wk =   0.0625000
        k(   16) = (   0.0625000   0.4375000   0.0000000), wk =   0.0625000
        k(   17) = (   0.0625000  -0.5000000   0.0000000), wk =   0.0312500
        k(   18) = (   0.1250000   0.1250000   0.0000000), wk =   0.0312500
        k(   19) = (   0.1250000   0.1875000   0.0000000), wk =   0.0625000
        k(   20) = (   0.1250000   0.2500000   0.0000000), wk =   0.0625000
        k(   21) = (   0.1250000   0.3125000   0.0000000), wk =   0.0625000
        k(   22) = (   0.1250000   0.3750000   0.0000000), wk =   0.0625000
        k(   23) = (   0.1250000   0.4375000   0.0000000), wk =   0.0625000
        k(   24) = (   0.1250000  -0.5000000   0.0000000), wk =   0.0312500
        k(   25) = (   0.1875000   0.1875000   0.0000000), wk =   0.0312500
        k(   26) = (   0.1875000   0.2500000   0.0000000), wk =   0.0625000
        k(   27) = (   0.1875000   0.3125000   0.0000000), wk =   0.0625000
        k(   28) = (   0.1875000   0.3750000   0.0000000), wk =   0.0625000
        k(   29) = (   0.1875000   0.4375000   0.0000000), wk =   0.0625000
        k(   30) = (   0.1875000  -0.5000000   0.0000000), wk =   0.0312500
        k(   31) = (   0.2500000   0.2500000   0.0000000), wk =   0.0312500
        k(   32) = (   0.2500000   0.3125000   0.0000000), wk =   0.0625000
        k(   33) = (   0.2500000   0.3750000   0.0000000), wk =   0.0625000
        k(   34) = (   0.2500000   0.4375000   0.0000000), wk =   0.0625000
        k(   35) = (   0.2500000  -0.5000000   0.0000000), wk =   0.0312500
        k(   36) = (   0.3125000   0.3125000   0.0000000), wk =   0.0312500
        k(   37) = (   0.3125000   0.3750000   0.0000000), wk =   0.0625000
        k(   38) = (   0.3125000   0.4375000   0.0000000), wk =   0.0625000
        k(   39) = (   0.3125000  -0.5000000   0.0000000), wk =   0.0312500
        k(   40) = (   0.3750000   0.3750000   0.0000000), wk =   0.0312500
        k(   41) = (   0.3750000   0.4375000   0.0000000), wk =   0.0625000
        k(   42) = (   0.3750000  -0.5000000   0.0000000), wk =   0.0312500
        k(   43) = (   0.4375000   0.4375000   0.0000000), wk =   0.0312500
        k(   44) = (   0.4375000  -0.5000000   0.0000000), wk =   0.0312500
        k(   45) = (  -0.5000000  -0.5000000   0.0000000), wk =   0.0078125

     Dense  grid:    81697 G-vectors     FFT dimensions: (  30,  30, 180)

     Largest allocated arrays     est. size (Mb)     dimensions
        Kohn-Sham Wavefunctions         7.82 Mb     (   32032,   16)
        NL pseudopotentials            15.64 Mb     (   32032,   32)
        Each V/rho on FFT grid          2.47 Mb     (  162000)
        Each G-vector array             0.62 Mb     (   81697)
        G-vector shells                 0.01 Mb     (    1599)
     Largest temporary arrays     est. size (Mb)     dimensions
        Auxiliary wavefunctions        31.28 Mb     (   32032,   64)
        Each subspace H/S matrix        0.06 Mb     (      64,   64)
        Each <psi_i|beta_j> matrix      0.01 Mb     (      32,   16)
        Arrays for rho mixing          19.78 Mb     (  162000,    8)

     Initial potential from superposition of free atoms

     starting charge   23.98028, renormalised to   24.00000

     negative rho (up, down):  4.196E-05 0.000E+00
     Starting wfc are   32 randomized atomic wfcs

     total cpu time spent up to now is       38.5 secs

     per-process dynamical memory:   416.6 Mb

     Self-consistent Calculation

     iteration #  1     ecut=    80.00 Ry     beta=0.30
     Davidson diagonalization with overlap
     ethr =  1.00E-02,  avg # of iterations =  2.8

     total cpu time spent up to now is      110.5 secs

     total energy              =     -99.64224400 Ry
     Harris-Foulkes estimate   =     -99.67580139 Ry
     estimated scf accuracy    <       0.56504495 Ry

     iteration #  2     ecut=    80.00 Ry     beta=0.30
     Davidson diagonalization with overlap
     ethr =  2.35E-03,  avg # of iterations =  1.0

     negative rho (up, down):  3.340E-05 0.000E+00

     total cpu time spent up to now is      154.0 secs

     total energy              =     -99.51764625 Ry
     Harris-Foulkes estimate   =     -99.64914692 Ry
     estimated scf accuracy    <       0.42592034 Ry

     iteration #  3     ecut=    80.00 Ry     beta=0.30
     Davidson diagonalization with overlap
     ethr =  1.77E-03,  avg # of iterations =  2.3

     total cpu time spent up to now is      205.2 secs

     total energy              =     -99.57607012 Ry
     Harris-Foulkes estimate   =     -99.61436012 Ry
     estimated scf accuracy    <       0.17863472 Ry

     iteration #  4     ecut=    80.00 Ry     beta=0.30
     Davidson diagonalization with overlap
     ethr =  7.44E-04,  avg # of iterations =  2.0

     total cpu time spent up to now is      253.0 secs

     total energy              =     -99.58993008 Ry
     Harris-Foulkes estimate   =     -99.59279924 Ry
     estimated scf accuracy    <       0.01438823 Ry

     iteration #  5     ecut=    80.00 Ry     beta=0.30
     Davidson diagonalization with overlap
     ethr =  6.00E-05,  avg # of iterations =  3.4

     total cpu time spent up to now is      306.6 secs

     total energy              =     -99.59061315 Ry
     Harris-Foulkes estimate   =     -99.59173597 Ry
     estimated scf accuracy    <       0.01214784 Ry

     iteration #  6     ecut=    80.00 Ry     beta=0.30
     Davidson diagonalization with overlap
     ethr =  5.06E-05,  avg # of iterations =  2.2

     total cpu time spent up to now is      359.9 secs

     total energy              =     -99.58114454 Ry
     Harris-Foulkes estimate   =     -99.59355369 Ry
     estimated scf accuracy    <       0.05771491 Ry

     iteration #  7     ecut=    80.00 Ry     beta=0.30
     Davidson diagonalization with overlap
     ethr =  5.06E-05,  avg # of iterations =  3.0

     negative rho (up, down):  3.190E-03 0.000E+00

     total cpu time spent up to now is      418.9 secs

     total energy              =     -99.59109054 Ry
     Harris-Foulkes estimate   =     -99.59093243 Ry
     estimated scf accuracy    <       0.01374119 Ry

     iteration #  8     ecut=    80.00 Ry     beta=0.30
     Davidson diagonalization with overlap
     ethr =  5.06E-05,  avg # of iterations =  1.6

     negative rho (up, down):  9.019E-03 0.000E+00

     total cpu time spent up to now is      462.8 secs

     total energy              =     -99.58877319 Ry
     Harris-Foulkes estimate   =     -99.59170036 Ry
     estimated scf accuracy    <       0.03007170 Ry

     iteration #  9     ecut=    80.00 Ry     beta=0.30
     Davidson diagonalization with overlap
     ethr =  5.06E-05,  avg # of iterations =  1.0

     negative rho (up, down):  1.013E-02 0.000E+00

     total cpu time spent up to now is      507.9 secs

     total energy              =     -99.58567618 Ry
     Harris-Foulkes estimate   =     -99.58924974 Ry
     estimated scf accuracy    <       0.01383784 Ry

     iteration # 10     ecut=    80.00 Ry     beta=0.30
     Davidson diagonalization with overlap
     ethr =  5.06E-05,  avg # of iterations =  2.3

     negative rho (up, down):  2.134E-03 0.000E+00

     total cpu time spent up to now is      560.1 secs

     total energy              =     -99.58771510 Ry
     Harris-Foulkes estimate   =     -99.58848203 Ry
     estimated scf accuracy    <       0.00412634 Ry

     iteration # 11     ecut=    80.00 Ry     beta=0.30
     Davidson diagonalization with overlap
     ethr =  1.72E-05,  avg # of iterations =  1.8

     negative rho (up, down):  2.734E-03 0.000E+00

     total cpu time spent up to now is      605.3 secs

     total energy              =     -99.58810584 Ry
     Harris-Foulkes estimate   =     -99.58808376 Ry
     estimated scf accuracy    <       0.00005455 Ry

     iteration # 12     ecut=    80.00 Ry     beta=0.30
     Davidson diagonalization with overlap
     ethr =  2.27E-07,  avg # of iterations =  3.2

     negative rho (up, down):  1.008E-03 0.000E+00

     total cpu time spent up to now is      663.7 secs

     total energy              =     -99.58811458 Ry
     Harris-Foulkes estimate   =     -99.58812920 Ry
     estimated scf accuracy    <       0.00003529 Ry

     iteration # 13     ecut=    80.00 Ry     beta=0.30
     Davidson diagonalization with overlap
     ethr =  1.47E-07,  avg # of iterations =  1.5

     negative rho (up, down):  1.289E-04 0.000E+00

     total cpu time spent up to now is      709.4 secs

     total energy              =     -99.58811061 Ry
     Harris-Foulkes estimate   =     -99.58811564 Ry
     estimated scf accuracy    <       0.00002451 Ry

     iteration # 14     ecut=    80.00 Ry     beta=0.30
     Davidson diagonalization with overlap
     ethr =  1.02E-07,  avg # of iterations =  1.6

     negative rho (up, down):  2.082E-05 0.000E+00

     total cpu time spent up to now is      757.0 secs

     total energy              =     -99.58810854 Ry
     Harris-Foulkes estimate   =     -99.58811207 Ry
     estimated scf accuracy    <       0.00001192 Ry

     iteration # 15     ecut=    80.00 Ry     beta=0.30
     Davidson diagonalization with overlap
     ethr =  4.97E-08,  avg # of iterations =  2.3

     negative rho (up, down):  1.020E-05 0.000E+00

     total cpu time spent up to now is      810.7 secs

     total energy              =     -99.58811088 Ry
     Harris-Foulkes estimate   =     -99.58811125 Ry
     estimated scf accuracy    <       0.00000386 Ry

     iteration # 16     ecut=    80.00 Ry     beta=0.30
     Davidson diagonalization with overlap
     ethr =  1.61E-08,  avg # of iterations =  1.1

     negative rho (up, down):  5.228E-06 0.000E+00

     total cpu time spent up to now is      852.5 secs

     End of self-consistent calculation

          k = 0.0000 0.0000 0.0000 ( 31917 PWs)   bands (ev):

   -10.9113  -9.5136  -7.3253  -4.4562  -2.6639  -2.6639  -2.1319  -1.3748
    -1.3748  -1.2877  -1.2877   0.1518   0.1518   0.6719   0.6719   1.3440

          k = 0.0000 0.0625 0.0000 ( 31885 PWs)   bands (ev):

   -10.8756  -9.4782  -7.2903  -4.4215  -3.2273  -2.6311  -2.0987  -1.9207
    -1.3420  -1.2275  -0.6767   0.1137   0.2503   0.7045   0.7287   1.3764

          k = 0.0000 0.1250 0.0000 ( 31839 PWs)   bands (ev):

   -10.7686  -9.3720  -7.1852  -4.3174  -4.1253  -2.7940  -2.5327  -1.9992
    -1.2437  -1.1230  -0.7023   0.1717   0.5461   0.8025   1.4729   1.7383

          k = 0.0000 0.1875 0.0000 ( 31878 PWs)   bands (ev):

   -10.5904  -9.1952  -7.0104  -5.0202  -4.1441  -3.6749  -2.3687  -1.8335
    -1.5639  -1.0798  -0.9544   0.4160   0.9657   1.1744   1.6298   1.6616

          k = 0.0000 0.2500 0.0000 ( 31868 PWs)   bands (ev):

   -10.3412  -8.9479  -6.7659  -5.8682  -4.5131  -3.9020  -2.3880  -2.1390
    -1.6018  -0.8504  -0.7275   0.4184   0.6540   1.1942   1.8356   2.0642

          k = 0.0000 0.3125 0.0000 ( 31850 PWs)   bands (ev):

   -10.0215  -8.6307  -6.6583  -6.4523  -5.2954  -3.5918  -3.1587  -1.8436
    -1.3045  -0.5554  -0.5535  -0.1890   0.9333   1.3089   1.4880   1.8900

          k = 0.0000 0.3750 0.0000 ( 31908 PWs)   bands (ev):

    -9.6316  -8.2439  -7.3858  -6.0699  -6.0164  -3.8698  -3.2142  -1.4826
    -1.0745  -0.9422  -0.1948   0.0119   0.6192   1.0238   1.4960   1.8470

          k = 0.0000 0.4375 0.0000 ( 31884 PWs)   bands (ev):

    -9.1723  -8.0483  -7.7882  -6.6733  -5.6196  -4.5183  -2.7706  -1.6939
    -1.0558  -0.5160  -0.0049   0.2314   0.4296   0.5117   1.2804   1.4379

          k = 0.0000-0.5000 0.0000 ( 31834 PWs)   bands (ev):

    -8.6442  -8.6442  -7.2643  -7.2643  -5.1020  -5.1020  -2.2627  -2.2627
    -0.5632  -0.5632  -0.0286  -0.0286   0.7231   0.7231   0.9129   0.9129

          k = 0.0625 0.0625 0.0000 ( 31859 PWs)   bands (ev):

   -10.8399  -9.4428  -7.2553  -4.3868  -3.1945  -3.1945  -2.0656  -1.8787
    -1.8787  -0.6167  -0.6167   0.1875   0.1875   0.7775   0.7775   1.4082

          k = 0.0625 0.1250 0.0000 ( 31856 PWs)   bands (ev):

   -10.7329  -9.3366  -7.1503  -4.2827  -4.0917  -3.1006  -2.7488  -1.9661
    -1.7770  -0.6649  -0.5082   0.2864   0.4277   0.9096   1.5015   1.8112

          k = 0.0625 0.1875 0.0000 ( 31887 PWs)   bands (ev):

   -10.5547  -9.1598  -6.9754  -4.9861  -4.1095  -3.6434  -2.9208  -1.8005
    -1.6213  -1.5175  -0.3429   0.4364   0.9918   1.2720   1.6402   1.7020

          k = 0.0625 0.2500 0.0000 ( 31885 PWs)   bands (ev):

   -10.3056  -8.9126  -6.7310  -5.8338  -4.4795  -3.8676  -2.6900  -2.3549
    -1.5690  -1.3759  -0.1369   0.4086   0.7762   1.2329   1.4797   1.9720

          k = 0.0625 0.3125 0.0000 ( 31871 PWs)   bands (ev):

    -9.9860  -8.5955  -6.6237  -6.4175  -5.2612  -3.5575  -3.1250  -2.3914
    -1.2720  -1.0785  -0.3689   0.2584   0.7758   1.0113   1.4715   1.9517

          k = 0.0625 0.3750 0.0000 ( 31889 PWs)   bands (ev):

    -9.5962  -8.2088  -7.3510  -6.0352  -5.9819  -3.8358  -3.1803  -2.0284
    -1.0236  -0.9105  -0.7159   0.0937   0.5962   1.1514   1.3632   1.4021

          k = 0.0625 0.4375 0.0000 ( 31904 PWs)   bands (ev):

    -9.1370  -8.0133  -7.7532  -6.6386  -5.5850  -4.4841  -2.7373  -1.7062
    -1.5407  -0.5297  -0.4869  -0.2921   0.5696   0.7820   1.0162   1.7839

          k = 0.0625-0.5000 0.0000 ( 31898 PWs)   bands (ev):

    -8.6091  -8.6091  -7.2295  -7.2295  -5.0676  -5.0676  -2.2314  -2.2314
    -1.0887  -1.0887  -0.0293  -0.0293   0.2541   0.2541   1.4927   1.4927

          k = 0.1250 0.1250 0.0000 ( 31863 PWs)   bands (ev):

   -10.6260  -9.2305  -7.0453  -4.1788  -3.9914  -3.9914  -2.6514  -2.6514
    -1.8669  -0.5667  -0.5667   0.5612   0.5612   1.5727   1.9210   1.9212

          k = 0.1250 0.1875 0.0000 ( 31832 PWs)   bands (ev):

   -10.4479  -9.0538  -6.8706  -4.8841  -4.0058  -3.8343  -3.5208  -2.4844
    -1.7016  -1.4288  -0.4082   0.7146   1.3947   1.3953   1.7089   1.9048

          k = 0.1250 0.2500 0.0000 ( 31879 PWs)   bands (ev):

   -10.1990  -8.8069  -6.6265  -5.7308  -4.3803  -3.7644  -3.5764  -2.2849
    -2.2171  -1.4708  -0.2079   0.5551   0.6631   1.0303   1.9906   2.0528

          k = 0.1250 0.3125 0.0000 ( 31887 PWs)   bands (ev):

    -9.8796  -8.4899  -6.5199  -6.3132  -5.1589  -3.4550  -3.2764  -3.0241
    -1.9465  -1.1752  -0.3061  -0.0776   0.2384   1.2449   1.2942   1.8616

          k = 0.1250 0.3750 0.0000 ( 31881 PWs)   bands (ev):

    -9.4901  -8.1035  -7.2466  -5.9313  -5.8786  -3.7339  -3.0790  -2.9081
    -1.5802  -0.9309  -0.8175  -0.7660   0.5396   0.5610   1.2583   1.6468

          k = 0.1250 0.4375 0.0000 ( 31877 PWs)   bands (ev):

    -9.0313  -7.9084  -7.6483  -6.5347  -5.4814  -4.3815  -2.6388  -2.4763
    -1.5480  -1.3925  -1.1493  -0.4240  -0.0330   0.6654   0.9550   1.9802

          k = 0.1250-0.5000 0.0000 ( 31862 PWs)   bands (ev):

    -8.5037  -8.5037  -7.1250  -7.1250  -4.9645  -4.9645  -2.1650  -2.1650
    -1.9257  -1.9257  -0.6614  -0.6614   0.1294   0.1294   1.4395   1.4396

          k = 0.1875 0.1875 0.0000 ( 31865 PWs)   bands (ev):

   -10.2701  -8.8774  -6.6962  -4.7149  -4.7149  -3.8334  -3.3627  -3.3627
    -1.5371  -1.2658  -1.2658   0.6141   1.4715   1.4715   1.9456   1.9748

          k = 0.1875 0.2500 0.0000 ( 31835 PWs)   bands (ev):

   -10.0215  -8.6307  -6.4524  -5.5594  -4.4903  -4.1856  -3.5927  -3.1275
    -2.0861  -1.3078  -1.0416  -0.1848   0.7241   1.1426   1.6778   2.1833

          k = 0.1875 0.3125 0.0000 ( 31878 PWs)   bands (ev):

    -9.7024  -8.3142  -6.3471  -6.1395  -4.9907  -4.1599  -3.2848  -2.8700
    -2.8082  -1.0164  -0.9368  -0.7795   0.0245   0.3962   1.7451   2.2983

          k = 0.1875 0.3750 0.0000 ( 31879 PWs)   bands (ev):

    -9.3135  -7.9283  -7.0728  -5.7581  -5.7069  -3.7903  -3.5644  -2.9118
    -2.4527  -1.6300  -0.8334  -0.6891  -0.2627  -0.2447   1.3611   1.7538

          k = 0.1875 0.4375 0.0000 ( 31884 PWs)   bands (ev):

    -8.8551  -7.7337  -7.4737  -6.3617  -5.3089  -4.2107  -3.3522  -2.4998
    -2.2356  -2.0174  -1.3975  -0.9643  -0.1945   0.1186   0.8078   1.1496

          k = 0.1875-0.5000 0.0000 ( 31874 PWs)   bands (ev):

    -8.3282  -8.3282  -6.9511  -6.9511  -4.7928  -4.7928  -2.8512  -2.8512
    -1.9515  -1.9515  -1.5181  -1.5181   0.2759   0.2759   0.5996   0.5996

          k = 0.2500 0.2500 0.0000 ( 31887 PWs)   bands (ev):

    -9.7733  -8.3845  -6.2090  -5.3206  -5.3206  -3.9610  -3.9610  -3.3535
    -1.8555  -1.8555  -1.0828  -0.9963   0.3385   0.9353   0.9353   2.2379

          k = 0.2500 0.3125 0.0000 ( 31922 PWs)   bands (ev):

    -9.4548  -8.0685  -6.1058  -5.8967  -5.0267  -4.7260  -3.6567  -3.0487
    -2.6199  -1.7537  -1.5641  -0.8220  -0.3831   0.2163   1.1744   1.6350

          k = 0.2500 0.3750 0.0000 ( 31859 PWs)   bands (ev):

    -9.0665  -7.6833  -6.8298  -5.5162  -5.4691  -4.6260  -3.3336  -3.2773
    -2.7017  -2.4284  -1.2372  -1.1530  -0.4269  -0.3905   0.9672   1.2923

          k = 0.2500 0.4375 0.0000 ( 31901 PWs)   bands (ev):

    -8.6089  -7.4895  -7.2296  -6.1202  -5.0679  -4.1866  -3.9722  -3.1091
    -2.8446  -2.2231  -1.7732  -1.2358  -0.6238   0.0134   0.3518   0.9688

          k = 0.2500-0.5000 0.0000 ( 31884 PWs)   bands (ev):

    -8.0830  -8.0830  -6.7081  -6.7081  -4.5528  -4.5528  -3.6791  -3.6791
    -2.3404  -2.3404  -1.7348  -1.7348  -0.1953  -0.1953   0.4801   0.4801

          k = 0.3125 0.3125 0.0000 ( 31923 PWs)   bands (ev):

    -9.1370  -7.7533  -5.7970  -5.7970  -5.5853  -4.4326  -4.4326  -2.7692
    -2.4934  -2.3209  -2.3209  -1.2168  -0.4561   0.4861   0.4861   0.9055

          k = 0.3125 0.3750 0.0000 ( 31919 PWs)   bands (ev):

    -8.7495  -7.3691  -6.5183  -5.4331  -5.2057  -5.1349  -4.0590  -3.2396
    -3.0237  -2.3595  -1.9615  -1.9025  -0.1748  -0.1184   0.2258   0.7876

          k = 0.3125 0.4375 0.0000 ( 31918 PWs)   bands (ev):

    -8.2930  -7.1762  -6.9165  -5.8124  -4.9628  -4.7587  -3.8776  -3.6684
    -3.6151  -2.5370  -1.9383  -1.5684  -0.7548  -0.3869   0.2825   0.9655

          k = 0.3125-0.5000 0.0000 ( 31864 PWs)   bands (ev):

    -7.7683  -7.7683  -6.3966  -6.3966  -4.4540  -4.4540  -4.2452  -4.2452
    -3.1094  -3.1094  -1.5060  -1.5060  -0.8813  -0.8813   0.7055   0.7055

          k = 0.3750 0.3750 0.0000 ( 31936 PWs)   bands (ev):

    -8.3631  -6.9860  -6.1394  -6.1394  -4.8274  -4.7721  -4.7721  -3.9441
    -2.6561  -2.6561  -2.6029  -2.0063  -0.4512   0.1600   0.1600   0.2166

          k = 0.3750 0.4375 0.0000 ( 31936 PWs)   bands (ev):

    -7.9079  -6.7945  -6.5351  -5.7055  -5.4091  -4.5884  -4.3820  -4.3291
    -3.2943  -3.2426  -2.2285  -1.6415  -1.0112  -0.4383   0.5269   0.5735

          k = 0.3750-0.5000 0.0000 ( 31974 PWs)   bands (ev):

    -7.3847  -7.3847  -6.0191  -6.0191  -5.1662  -5.1662  -3.8710  -3.8710
    -3.8181  -3.8181  -1.7684  -1.7684  -0.9532  -0.9532   0.7686   0.7686

          k = 0.4375 0.4375 0.0000 ( 31954 PWs)   bands (ev):

    -7.4542  -6.3457  -6.3457  -6.0881  -5.2342  -4.9767  -4.9767  -3.9389
    -3.8857  -2.8580  -2.8580  -1.8353  -1.0195  -0.0371  -0.0371   0.7029

          k = 0.4375-0.5000 0.0000 ( 31974 PWs)   bands (ev):

    -6.9329  -6.9329  -5.8421  -5.8421  -5.5465  -5.5465  -4.4647  -4.4647
    -3.4299  -3.4299  -2.3626  -2.3626  -0.5708  -0.5708   0.3959   0.3959

          k =-0.5000-0.5000 0.0000 ( 32032 PWs)   bands (ev):

    -6.4145  -6.4145  -6.4145  -6.4145  -5.0450  -5.0450  -5.0450  -5.0450
    -2.9255  -2.9255  -2.9255  -2.9255  -0.1031  -0.1031  -0.1031  -0.1031

     the Fermi energy is    -0.1663 ev

!    total energy              =     -99.58811089 Ry
     Harris-Foulkes estimate   =     -99.58811111 Ry
     estimated scf accuracy    <       0.00000033 Ry

     The total energy is the sum of the following terms:

     one-electron contribution =    -399.04086815 Ry
     hartree contribution      =     204.32382133 Ry
     xc contribution           =     -79.85027696 Ry
     ewald contribution        =     174.97900861 Ry
     smearing contrib. (-TS)   =       0.00020428 Ry

     convergence has been achieved in  16 iterations

     Forces acting on atoms (Ry/au):


     negative rho (up, down):  5.228E-06 0.000E+00
     atom    1 type  1   force =     0.00000000    0.00000000   -0.00504112
     atom    2 type  1   force =     0.00000000    0.00000000   -0.00504108
     atom    3 type  1   force =     0.00000000    0.00000000    0.00124294
     atom    4 type  1   force =     0.00000000    0.00000000    0.00124294
     atom    5 type  1   force =     0.00000000    0.00000000   -0.00124312
     atom    6 type  1   force =     0.00000000    0.00000000   -0.00124319
     atom    7 type  1   force =     0.00000000    0.00000000    0.00504132
     atom    8 type  1   force =     0.00000000    0.00000000    0.00504132

     Total force =     0.010384     Total SCF correction =     0.000884


     entering subroutine stress ...


     negative rho (up, down):  5.228E-06 0.000E+00
          total   stress  (Ry/bohr**3)                   (kbar)     P=   -7.23
  -0.00009345   0.00000000   0.00000000        -13.75      0.00      0.00
   0.00000000  -0.00009345   0.00000000          0.00    -13.75      0.00
   0.00000000   0.00000000   0.00003939          0.00      0.00      5.79


     BFGS Geometry Optimization

     number of scf cycles    =   1
     number of bfgs steps    =   0

     energy   new            =     -99.5881108890 Ry

     new trust radius        =       0.0050413209 bohr
     new conv_thr            =       0.0000010000 Ry


ATOMIC_POSITIONS (crystal)
Al       0.000000000   0.000000000  -0.000110478
Al       0.500000000   0.500000000  -0.000110477
Al       0.500000000   0.000000000   0.083360573
Al       0.000000000   0.500000000   0.083360573
Al       0.000000000   0.000000000   0.166639423
Al       0.500000000   0.500000000   0.166639422
Al       0.500000000   0.000000000   0.250110483
Al       0.000000000   0.500000000   0.250110483



     Writing output data file Al_100_2_4.save
     NEW-OLD atomic charge density approx. for the potential

     negative rho (up, down):  4.901E-06 0.000E+00

     total cpu time spent up to now is      876.9 secs

     per-process dynamical memory:   452.3 Mb

     Self-consistent Calculation

     iteration #  1     ecut=    80.00 Ry     beta=0.30
     Davidson diagonalization with overlap
     ethr =  1.00E-06,  avg # of iterations =  2.0

     Threshold (ethr) on eigenvalues was too large:
     Diagonalizing with lowered threshold

     Davidson diagonalization with overlap
     ethr =  8.39E-08,  avg # of iterations =  2.1

     negative rho (up, down):  3.222E-06 0.000E+00

     total cpu time spent up to now is      981.2 secs

     total energy              =     -99.58821510 Ry
     Harris-Foulkes estimate   =     -99.58821649 Ry
     estimated scf accuracy    <       0.00002076 Ry

     iteration #  2     ecut=    80.00 Ry     beta=0.30
     Davidson diagonalization with overlap
     ethr =  8.65E-08,  avg # of iterations =  1.0

     negative rho (up, down):  7.763E-07 0.000E+00

     total cpu time spent up to now is     1026.3 secs

     total energy              =     -99.58821227 Ry
     Harris-Foulkes estimate   =     -99.58821534 Ry
     estimated scf accuracy    <       0.00001182 Ry

     iteration #  3     ecut=    80.00 Ry     beta=0.30
     Davidson diagonalization with overlap
     ethr =  4.92E-08,  avg # of iterations =  2.1

     negative rho (up, down):  5.193E-06 0.000E+00

     total cpu time spent up to now is     1074.8 secs

     End of self-consistent calculation

          k = 0.0000 0.0000 0.0000 ( 31917 PWs)   bands (ev):

   -10.9084  -9.5076  -7.3283  -4.4609  -2.6608  -2.6608  -2.1368  -1.3677
    -1.3677  -1.2847  -1.2847   0.1574   0.1574   0.6686   0.6686   1.3368

          k = 0.0000 0.0625 0.0000 ( 31885 PWs)   bands (ev):

   -10.8727  -9.4722  -7.2933  -4.4261  -3.2243  -2.6280  -2.1036  -1.9141
    -1.3349  -1.2245  -0.6736   0.1145   0.2518   0.7012   0.7348   1.3692

          k = 0.0000 0.1250 0.0000 ( 31839 PWs)   bands (ev):

   -10.7657  -9.3659  -7.1883  -4.3220  -4.1223  -2.7875  -2.5296  -2.0041
    -1.2365  -1.1200  -0.7049   0.1760   0.5498   0.7992   1.4657   1.7430

          k = 0.0000 0.1875 0.0000 ( 31878 PWs)   bands (ev):

   -10.5875  -9.1891  -7.0134  -5.0172  -4.1487  -3.6685  -2.3656  -1.8383
    -1.5667  -1.0727  -0.9514   0.4211   0.9624   1.1698   1.6228   1.6647

          k = 0.0000 0.2500 0.0000 ( 31868 PWs)   bands (ev):

   -10.3383  -8.9418  -6.7689  -5.8653  -4.5068  -3.9066  -2.3908  -2.1359
    -1.6066  -0.8432  -0.7245   0.4138   0.6592   1.1909   1.8292   2.0674

          k = 0.0000 0.3125 0.0000 ( 31850 PWs)   bands (ev):

   -10.0185  -8.6246  -6.6553  -6.4553  -5.2891  -3.5964  -3.1616  -1.8405
    -1.3092  -0.5530  -0.5482  -0.1912   0.9380   1.3121   1.4847   1.8866

          k = 0.0000 0.3750 0.0000 ( 31908 PWs)   bands (ev):

    -9.6287  -8.2378  -7.3829  -6.0729  -6.0102  -3.8727  -3.2188  -1.4794
    -1.0785  -0.9469  -0.1875   0.0143   0.6224   1.0219   1.4991   1.8436

          k = 0.0000 0.4375 0.0000 ( 31884 PWs)   bands (ev):

    -9.1694  -8.0454  -7.7821  -6.6671  -5.6225  -4.5212  -2.7751  -1.6982
    -1.0526  -0.5207  -0.0017   0.2387   0.4322   0.5073   1.2877   1.4406

          k = 0.0000-0.5000 0.0000 ( 31834 PWs)   bands (ev):

    -8.6413  -8.6413  -7.2582  -7.2582  -5.1049  -5.1049  -2.2671  -2.2671
    -0.5601  -0.5600  -0.0331  -0.0331   0.7304   0.7304   0.9156   0.9156

          k = 0.0625 0.0625 0.0000 ( 31859 PWs)   bands (ev):

   -10.8370  -9.4367  -7.2583  -4.3914  -3.1914  -3.1914  -2.0704  -1.8720
    -1.8720  -0.6137  -0.6137   0.1846   0.1846   0.7831   0.7831   1.4011

          k = 0.0625 0.1250 0.0000 ( 31856 PWs)   bands (ev):

   -10.7300  -9.3306  -7.1533  -4.2873  -4.0887  -3.0975  -2.7423  -1.9710
    -1.7702  -0.6678  -0.5052   0.2833   0.4309   0.9150   1.4944   1.8170

          k = 0.0625 0.1875 0.0000 ( 31887 PWs)   bands (ev):

   -10.5518  -9.1537  -6.9784  -4.9831  -4.1141  -3.6371  -2.9177  -1.8053
    -1.6152  -1.5197  -0.3398   0.4332   0.9973   1.2675   1.6339   1.7051

          k = 0.0625 0.2500 0.0000 ( 31885 PWs)   bands (ev):

   -10.3027  -8.9066  -6.7340  -5.8309  -4.4732  -3.8722  -2.6869  -2.3577
    -1.5738  -1.3692  -0.1340   0.4043   0.7730   1.2384   1.4817   1.9662

          k = 0.0625 0.3125 0.0000 ( 31871 PWs)   bands (ev):

    -9.9831  -8.5894  -6.6207  -6.4205  -5.2550  -3.5621  -3.1278  -2.3884
    -1.2768  -1.0718  -0.3725   0.2603   0.7789   1.0083   1.4752   1.9498

          k = 0.0625 0.3750 0.0000 ( 31889 PWs)   bands (ev):

    -9.5933  -8.2027  -7.3481  -6.0382  -5.9757  -3.8387  -3.1849  -2.0254
    -1.0279  -0.9152  -0.7092   0.0968   0.5989   1.1475   1.3601   1.4091

          k = 0.0625 0.4375 0.0000 ( 31904 PWs)   bands (ev):

    -9.1341  -8.0104  -7.7471  -6.6325  -5.5880  -4.4870  -2.7419  -1.7080
    -1.5402  -0.5266  -0.4915  -0.2854   0.5654   0.7889   1.0190   1.7809

          k = 0.0625-0.5000 0.0000 ( 31898 PWs)   bands (ev):

    -8.6062  -8.6062  -7.2234  -7.2234  -5.0705  -5.0705  -2.2358  -2.2358
    -1.0857  -1.0857  -0.0325  -0.0325   0.2597   0.2597   1.4955   1.4955

          k = 0.1250 0.1250 0.0000 ( 31863 PWs)   bands (ev):

   -10.6231  -9.2244  -7.0484  -4.1834  -3.9884  -3.9884  -2.6449  -2.6449
    -1.8717  -0.5696  -0.5696   0.5642   0.5642   1.5663   1.9270   1.9271

          k = 0.1250 0.1875 0.0000 ( 31832 PWs)   bands (ev):

   -10.4450  -9.0478  -6.8737  -4.8811  -4.0104  -3.8311  -3.5146  -2.4779
    -1.7064  -1.4317  -0.4112   0.7175   1.3904   1.3966   1.7120   1.8993

          k = 0.1250 0.2500 0.0000 ( 31879 PWs)   bands (ev):

   -10.1961  -8.8008  -6.6295  -5.7278  -4.3740  -3.7689  -3.5734  -2.2827
    -2.2156  -1.4755  -0.2109   0.5519   0.6661   1.0322   1.9975   2.0456

          k = 0.1250 0.3125 0.0000 ( 31887 PWs)   bands (ev):

    -9.8767  -8.4838  -6.5169  -6.3162  -5.1527  -3.4596  -3.2734  -3.0269
    -1.9401  -1.1799  -0.3102  -0.0745   0.2353   1.2518   1.2970   1.8583

          k = 0.1250 0.3750 0.0000 ( 31881 PWs)   bands (ev):

    -9.4872  -8.0974  -7.2437  -5.9342  -5.8724  -3.7368  -3.0835  -2.9050
    -1.5737  -0.9353  -0.8221  -0.7630   0.5367   0.5677   1.2542   1.6497

          k = 0.1250 0.4375 0.0000 ( 31877 PWs)   bands (ev):

    -9.0283  -7.9055  -7.6422  -6.5285  -5.4844  -4.3844  -2.6433  -2.4732
    -1.5525  -1.3896  -1.1428  -0.4276  -0.0274   0.6612   0.9521   1.9772

          k = 0.1250-0.5000 0.0000 ( 31862 PWs)   bands (ev):

    -8.5008  -8.5008  -7.1189  -7.1189  -4.9674  -4.9674  -2.1679  -2.1679
    -1.9243  -1.9243  -0.6551  -0.6551   0.1253   0.1253   1.4366   1.4366

          k = 0.1875 0.1875 0.0000 ( 31865 PWs)   bands (ev):

   -10.2672  -8.8713  -6.6992  -4.7119  -4.7119  -3.8380  -3.3562  -3.3562
    -1.5419  -1.2687  -1.2687   0.6171   1.4681   1.4681   1.9524   1.9771

          k = 0.1875 0.2500 0.0000 ( 31835 PWs)   bands (ev):

   -10.0186  -8.6246  -6.4554  -5.5564  -4.4871  -4.1795  -3.5973  -3.1210
    -2.0890  -1.3126  -1.0446  -0.1817   0.7200   1.1494   1.6741   2.1861

          k = 0.1875 0.3125 0.0000 ( 31878 PWs)   bands (ev):

    -9.6995  -8.3081  -6.3442  -6.1425  -4.9845  -4.1569  -3.2893  -2.8701
    -2.8046  -1.0211  -0.9338  -0.7826   0.0203   0.4029   1.7421   2.2944

          k = 0.1875 0.3750 0.0000 ( 31879 PWs)   bands (ev):

    -9.3105  -7.9222  -7.0698  -5.7611  -5.7007  -3.7873  -3.5673  -2.9163
    -2.4464  -1.6271  -0.8377  -0.6928  -0.2570  -0.2477   1.3574   1.7511

          k = 0.1875 0.4375 0.0000 ( 31884 PWs)   bands (ev):

    -8.8522  -7.7308  -7.4676  -6.3555  -5.3119  -4.2136  -3.3492  -2.5029
    -2.2340  -2.0109  -1.4020  -0.9582  -0.1985   0.1157   0.8037   1.1467

          k = 0.1875-0.5000 0.0000 ( 31874 PWs)   bands (ev):

    -8.3253  -8.3253  -6.9450  -6.9450  -4.7957  -4.7957  -2.8481  -2.8481
    -1.9561  -1.9561  -1.5117  -1.5117   0.2716   0.2716   0.5968   0.5968

          k = 0.2500 0.2500 0.0000 ( 31887 PWs)   bands (ev):

    -9.7704  -8.3784  -6.2120  -5.3176  -5.3176  -3.9546  -3.9546  -3.3581
    -1.8584  -1.8584  -1.0875  -0.9933   0.3452   0.9312   0.9312   2.2339

          k = 0.2500 0.3125 0.0000 ( 31922 PWs)   bands (ev):

    -9.4519  -8.0624  -6.1028  -5.8997  -5.0235  -4.7199  -3.6503  -3.0532
    -2.6229  -1.7508  -1.5670  -0.8257  -0.3775   0.2121   1.1707   1.6322

          k = 0.2500 0.3750 0.0000 ( 31859 PWs)   bands (ev):

    -9.0635  -7.6772  -6.8269  -5.5191  -5.4629  -4.6229  -3.3350  -3.2725
    -2.7050  -2.4266  -1.2403  -1.1470  -0.4310  -0.3946   0.9644   1.2892

          k = 0.2500 0.4375 0.0000 ( 31901 PWs)   bands (ev):

    -8.6060  -7.4866  -7.2234  -6.1140  -5.0709  -4.1836  -3.9751  -3.1061
    -2.8383  -2.2277  -1.7668  -1.2402  -0.6268   0.0091   0.3490   0.9651

          k = 0.2500-0.5000 0.0000 ( 31884 PWs)   bands (ev):

    -8.0801  -8.0801  -6.7019  -6.7019  -4.5558  -4.5558  -3.6760  -3.6760
    -2.3341  -2.3341  -1.7393  -1.7393  -0.1981  -0.1981   0.4760   0.4760

          k = 0.3125 0.3125 0.0000 ( 31923 PWs)   bands (ev):

    -9.1341  -7.7472  -5.7940  -5.7940  -5.5883  -4.4263  -4.4263  -2.7725
    -2.4917  -2.3239  -2.3238  -1.2108  -0.4602   0.4820   0.4820   0.9027

          k = 0.3125 0.3750 0.0000 ( 31919 PWs)   bands (ev):

    -8.7466  -7.3629  -6.5154  -5.4299  -5.2087  -5.1289  -4.0526  -3.2366
    -3.0267  -2.3641  -1.9645  -1.8962  -0.1790  -0.1227   0.2230   0.7839

          k = 0.3125 0.4375 0.0000 ( 31918 PWs)   bands (ev):

    -8.2901  -7.1733  -6.9103  -5.8063  -4.9598  -4.7617  -3.8746  -3.6707
    -3.6094  -2.5306  -1.9429  -1.5715  -0.7589  -0.3897   0.2784   0.9625

          k = 0.3125-0.5000 0.0000 ( 31864 PWs)   bands (ev):

    -7.7653  -7.7653  -6.3905  -6.3905  -4.4510  -4.4510  -4.2481  -4.2481
    -3.1031  -3.1031  -1.5104  -1.5104  -0.8843  -0.8843   0.7018   0.7018

          k = 0.3750 0.3750 0.0000 ( 31936 PWs)   bands (ev):

    -8.3602  -6.9799  -6.1365  -6.1365  -4.8304  -4.7659  -4.7658  -3.9410
    -2.6590  -2.6590  -2.5965  -2.0109  -0.4540   0.1560   0.1560   0.2124

          k = 0.3750 0.4375 0.0000 ( 31936 PWs)   bands (ev):

    -7.9050  -6.7916  -6.5290  -5.7024  -5.4030  -4.5854  -4.3850  -4.3229
    -3.2972  -3.2363  -2.2315  -1.6459  -1.0141  -0.4425   0.5232   0.5698

          k = 0.3750-0.5000 0.0000 ( 31974 PWs)   bands (ev):

    -7.3817  -7.3817  -6.0129  -6.0129  -5.1632  -5.1632  -3.8737  -3.8737
    -3.8121  -3.8121  -1.7716  -1.7716  -0.9573  -0.9573   0.7656   0.7656

          k = 0.4375 0.4375 0.0000 ( 31954 PWs)   bands (ev):

    -7.4513  -6.3427  -6.3427  -6.0819  -5.2312  -4.9705  -4.9705  -3.9417
    -3.8796  -2.8610  -2.8610  -1.8385  -1.0236  -0.0412  -0.0412   0.6998

          k = 0.4375-0.5000 0.0000 ( 31974 PWs)   bands (ev):

    -6.9300  -6.9300  -5.8390  -5.8390  -5.5405  -5.5405  -4.4585  -4.4585
    -3.4328  -3.4328  -2.3655  -2.3655  -0.5750  -0.5750   0.3922   0.3922

          k =-0.5000-0.5000 0.0000 ( 32032 PWs)   bands (ev):

    -6.4116  -6.4116  -6.4116  -6.4116  -5.0388  -5.0388  -5.0388  -5.0388
    -2.9285  -2.9285  -2.9285  -2.9285  -0.1071  -0.1071  -0.1071  -0.1071

     the Fermi energy is    -0.1672 ev

!    total energy              =     -99.58821356 Ry
     Harris-Foulkes estimate   =     -99.58821402 Ry
     estimated scf accuracy    <       0.00000050 Ry

     The total energy is the sum of the following terms:

     one-electron contribution =    -398.76695843 Ry
     hartree contribution      =     204.18892886 Ry
     xc contribution           =     -79.84773294 Ry
     ewald contribution        =     174.83734169 Ry
     smearing contrib. (-TS)   =       0.00020726 Ry

     convergence has been achieved in   3 iterations

     Forces acting on atoms (Ry/au):


     negative rho (up, down):  5.193E-06 0.000E+00
     atom    1 type  1   force =     0.00000000    0.00000000   -0.00464969
     atom    2 type  1   force =     0.00000000    0.00000000   -0.00464974
     atom    3 type  1   force =     0.00000000    0.00000000    0.00077877
     atom    4 type  1   force =     0.00000000    0.00000000    0.00077877
     atom    5 type  1   force =     0.00000000    0.00000000   -0.00077642
     atom    6 type  1   force =     0.00000000    0.00000000   -0.00077643
     atom    7 type  1   force =     0.00000000    0.00000000    0.00464737
     atom    8 type  1   force =     0.00000000    0.00000000    0.00464737

     Total force =     0.009426     Total SCF correction =     0.000903


     entering subroutine stress ...


     negative rho (up, down):  5.193E-06 0.000E+00
          total   stress  (Ry/bohr**3)                   (kbar)     P=   -7.38
  -0.00009421   0.00000000   0.00000000        -13.86      0.00      0.00
   0.00000000  -0.00009421   0.00000000          0.00    -13.86      0.00
   0.00000000   0.00000000   0.00003793          0.00      0.00      5.58


     number of scf cycles    =   2
     number of bfgs steps    =   1

     energy   old            =     -99.5881108890 Ry
     energy   new            =     -99.5882135552 Ry

     CASE: energy  _new < energy  _old


     WARNING: bfgs curvature condition failed, Theta= 0.884
     new trust radius        =       0.0055454529 bohr
     new conv_thr            =       0.0000000103 Ry


ATOMIC_POSITIONS (crystal)
Al       0.000000000   0.000000000  -0.000232008
Al       0.500000000   0.500000000  -0.000232008
Al       0.500000000   0.000000000   0.083383093
Al       0.000000000   0.500000000   0.083383093
Al       0.000000000   0.000000000   0.166616949
Al       0.500000000   0.500000000   0.166616947
Al       0.500000000   0.000000000   0.250231967
Al       0.000000000   0.500000000   0.250231967



     Writing output data file Al_100_2_4.save
     NEW-OLD atomic charge density approx. for the potential

     negative rho (up, down):  4.833E-06 0.000E+00

     total cpu time spent up to now is     1098.5 secs

     per-process dynamical memory:   480.5 Mb

     Self-consistent Calculation

     iteration #  1     ecut=    80.00 Ry     beta=0.30
     Davidson diagonalization with overlap
     ethr =  1.00E-06,  avg # of iterations =  2.0

     Threshold (ethr) on eigenvalues was too large:
     Diagonalizing with lowered threshold

     Davidson diagonalization with overlap
     ethr =  8.14E-08,  avg # of iterations =  2.1

     negative rho (up, down):  3.427E-06 0.000E+00

     total cpu time spent up to now is     1205.2 secs

     total energy              =     -99.58831679 Ry
     Harris-Foulkes estimate   =     -99.58831822 Ry
     estimated scf accuracy    <       0.00001982 Ry

     iteration #  2     ecut=    80.00 Ry     beta=0.30
     Davidson diagonalization with overlap
     ethr =  8.26E-08,  avg # of iterations =  1.0

     negative rho (up, down):  1.264E-06 0.000E+00

     total cpu time spent up to now is     1249.7 secs

     total energy              =     -99.58831417 Ry
     Harris-Foulkes estimate   =     -99.58831705 Ry
     estimated scf accuracy    <       0.00001081 Ry

     iteration #  3     ecut=    80.00 Ry     beta=0.30
     Davidson diagonalization with overlap
     ethr =  4.51E-08,  avg # of iterations =  2.2

     negative rho (up, down):  1.638E-06 0.000E+00

     total cpu time spent up to now is     1301.1 secs

     total energy              =     -99.58831565 Ry
     Harris-Foulkes estimate   =     -99.58831570 Ry
     estimated scf accuracy    <       0.00000026 Ry

     iteration #  4     ecut=    80.00 Ry     beta=0.30
     Davidson diagonalization with overlap
     ethr =  1.08E-09,  avg # of iterations =  2.6

     negative rho (up, down):  2.803E-06 0.000E+00

     total cpu time spent up to now is     1356.9 secs

     total energy              =     -99.58831569 Ry
     Harris-Foulkes estimate   =     -99.58831571 Ry
     estimated scf accuracy    <       0.00000008 Ry

     iteration #  5     ecut=    80.00 Ry     beta=0.30
     Davidson diagonalization with overlap
     ethr =  3.53E-10,  avg # of iterations =  3.0

     negative rho (up, down):  2.425E-06 0.000E+00

     total cpu time spent up to now is     1416.6 secs

     total energy              =     -99.58831566 Ry
     Harris-Foulkes estimate   =     -99.58831575 Ry
     estimated scf accuracy    <       0.00000064 Ry

     iteration #  6     ecut=    80.00 Ry     beta=0.30
     Davidson diagonalization with overlap
     ethr =  3.53E-10,  avg # of iterations =  2.4

     negative rho (up, down):  2.664E-06 0.000E+00

     total cpu time spent up to now is     1477.2 secs

     total energy              =     -99.58831569 Ry
     Harris-Foulkes estimate   =     -99.58831570 Ry
     estimated scf accuracy    <       0.00000007 Ry

     iteration #  7     ecut=    80.00 Ry     beta=0.30
     Davidson diagonalization with overlap
     ethr =  2.83E-10,  avg # of iterations =  1.0

     negative rho (up, down):  3.949E-06 0.000E+00

     total cpu time spent up to now is     1521.4 secs

     total energy              =     -99.58831565 Ry
     Harris-Foulkes estimate   =     -99.58831569 Ry
     estimated scf accuracy    <       0.00000003 Ry

     iteration #  8     ecut=    80.00 Ry     beta=0.30
     Davidson diagonalization with overlap
     ethr =  1.26E-10,  avg # of iterations =  2.0

     negative rho (up, down):  5.152E-06 0.000E+00

     total cpu time spent up to now is     1569.9 secs

     End of self-consistent calculation

          k = 0.0000 0.0000 0.0000 ( 31917 PWs)   bands (ev):

   -10.9014  -9.4968  -7.3270  -4.4615  -2.6536  -2.6536  -2.1378  -1.3557
    -1.3557  -1.2777  -1.2777   0.1677   0.1677   0.6698   0.6698   1.3329

          k = 0.0000 0.0625 0.0000 ( 31885 PWs)   bands (ev):

   -10.8657  -9.4614  -7.2920  -4.4267  -3.2171  -2.6207  -2.1046  -1.9026
    -1.3229  -1.2174  -0.6663   0.1195   0.2582   0.7024   0.7455   1.3653

          k = 0.0000 0.1250 0.0000 ( 31839 PWs)   bands (ev):

   -10.7587  -9.3552  -7.1869  -4.3226  -4.1151  -2.7763  -2.5223  -2.0051
    -1.2246  -1.1130  -0.7031   0.1849   0.5577   0.8004   1.4619   1.7519

          k = 0.0000 0.1875 0.0000 ( 31878 PWs)   bands (ev):

   -10.5804  -9.1783  -7.0120  -5.0101  -4.1492  -3.6574  -2.3583  -1.8393
    -1.5650  -1.0607  -0.9444   0.4309   0.9636   1.1694   1.6192   1.6718

          k = 0.0000 0.2500 0.0000 ( 31868 PWs)   bands (ev):

   -10.3313  -8.9310  -6.7676  -5.8582  -4.4958  -3.9072  -2.3893  -2.1286
    -1.6076  -0.8312  -0.7174   0.4133   0.6690   1.1921   1.8260   2.0748

          k = 0.0000 0.3125 0.0000 ( 31850 PWs)   bands (ev):

   -10.0115  -8.6138  -6.6483  -6.4539  -5.2782  -3.5969  -3.1600  -1.8332
    -1.3102  -0.5483  -0.5362  -0.1893   0.9474   1.3195   1.4859   1.8870

          k = 0.0000 0.3750 0.0000 ( 31908 PWs)   bands (ev):

    -9.6217  -8.2270  -7.3758  -6.0715  -5.9993  -3.8713  -3.2193  -1.4721
    -1.0784  -0.9478  -0.1755   0.0207   0.6297   1.0241   1.5066   1.8448

          k = 0.0000 0.4375 0.0000 ( 31884 PWs)   bands (ev):

    -9.1624  -8.0384  -7.7712  -6.6563  -5.6211  -4.5198  -2.7756  -1.6985
    -1.0453  -0.5215   0.0056   0.2507   0.4390   0.5068   1.2998   1.4474

          k = 0.0000-0.5000 0.0000 ( 31834 PWs)   bands (ev):

    -8.6343  -8.6343  -7.2473  -7.2473  -5.1035  -5.1035  -2.2675  -2.2675
    -0.5527  -0.5527  -0.0338  -0.0338   0.7425   0.7425   0.9225   0.9225

          k = 0.0625 0.0625 0.0000 ( 31859 PWs)   bands (ev):

   -10.8300  -9.4260  -7.2570  -4.3920  -3.1843  -3.1843  -2.0714  -1.8604
    -1.8604  -0.6065  -0.6065   0.1863   0.1863   0.7934   0.7934   1.3972

          k = 0.0625 0.1250 0.0000 ( 31856 PWs)   bands (ev):

   -10.7230  -9.3198  -7.1519  -4.2879  -4.0815  -3.0902  -2.7311  -1.9720
    -1.7586  -0.6661  -0.4980   0.2847   0.4383   0.9251   1.4907   1.8276

          k = 0.0625 0.1875 0.0000 ( 31887 PWs)   bands (ev):

   -10.5448  -9.1429  -6.9771  -4.9760  -4.1147  -3.6260  -2.9105  -1.8063
    -1.6046  -1.5172  -0.3326   0.4345   1.0076   1.2672   1.6308   1.7124

          k = 0.0625 0.2500 0.0000 ( 31885 PWs)   bands (ev):

   -10.2957  -8.8958  -6.7327  -5.8238  -4.4621  -3.8727  -2.6797  -2.3561
    -1.5748  -1.3577  -0.1271   0.4043   0.7741   1.2486   1.4877   1.9638

          k = 0.0625 0.3125 0.0000 ( 31871 PWs)   bands (ev):

    -9.9760  -8.5786  -6.6137  -6.4191  -5.2440  -3.5626  -3.1263  -2.3811
    -1.2777  -1.0602  -0.3719   0.2663   0.7861   1.0097   1.4834   1.9520

          k = 0.0625 0.3750 0.0000 ( 31889 PWs)   bands (ev):

    -9.5863  -8.1919  -7.3410  -6.0368  -5.9648  -3.8373  -3.1854  -2.0181
    -1.0281  -0.9161  -0.6976   0.1040   0.6057   1.1476   1.3615   1.4209

          k = 0.0625 0.4375 0.0000 ( 31904 PWs)   bands (ev):

    -9.1271  -8.0034  -7.7362  -6.6216  -5.5866  -4.4855  -2.7423  -1.7058
    -1.5355  -0.5194  -0.4923  -0.2740   0.5650   0.8006   1.0259   1.7823

          k = 0.0625-0.5000 0.0000 ( 31898 PWs)   bands (ev):

    -8.5991  -8.5991  -7.2125  -7.2125  -5.0691  -5.0691  -2.2361  -2.2361
    -1.0786  -1.0786  -0.0318  -0.0318   0.2700   0.2700   1.5025   1.5025

          k = 0.1250 0.1250 0.0000 ( 31863 PWs)   bands (ev):

   -10.6161  -9.2137  -7.0470  -4.1840  -3.9813  -3.9813  -2.6336  -2.6336
    -1.8727  -0.5681  -0.5681   0.5713   0.5713   1.5633   1.9376   1.9377

          k = 0.1250 0.1875 0.0000 ( 31832 PWs)   bands (ev):

   -10.4380  -9.0370  -6.8723  -4.8740  -4.0110  -3.8238  -3.5036  -2.4665
    -1.7074  -1.4302  -0.4097   0.7244   1.3903   1.4019   1.7193   1.8972

          k = 0.1250 0.2500 0.0000 ( 31879 PWs)   bands (ev):

   -10.1891  -8.7900  -6.6281  -5.7208  -4.3630  -3.7695  -3.5662  -2.2768
    -2.2087  -1.4765  -0.2095   0.5527   0.6732   1.0382   2.0091   2.0417

          k = 0.1250 0.3125 0.0000 ( 31887 PWs)   bands (ev):

    -9.8697  -8.4730  -6.5099  -6.3148  -5.1417  -3.4601  -3.2662  -3.0254
    -1.9288  -1.1808  -0.3101  -0.0673   0.2365   1.2633   1.3039   1.8589

          k = 0.1250 0.3750 0.0000 ( 31881 PWs)   bands (ev):

    -9.4802  -8.0866  -7.2366  -5.9328  -5.8615  -3.7353  -3.0840  -2.8978
    -1.5624  -0.9356  -0.8229  -0.7558   0.5381   0.5792   1.2541   1.6568

          k = 0.1250 0.4375 0.0000 ( 31877 PWs)   bands (ev):

    -9.0213  -7.8985  -7.6313  -6.5176  -5.4830  -4.3829  -2.6436  -2.4660
    -1.5529  -1.3826  -1.1315  -0.4273  -0.0170   0.6608   0.9536   1.9787

          k = 0.1250-0.5000 0.0000 ( 31862 PWs)   bands (ev):

    -8.4938  -8.4938  -7.1080  -7.1080  -4.9660  -4.9660  -2.1667  -2.1667
    -1.9187  -1.9187  -0.6441  -0.6441   0.1251   0.1251   1.4381   1.4381

          k = 0.1875 0.1875 0.0000 ( 31865 PWs)   bands (ev):

   -10.2602  -8.8605  -6.6979  -4.7048  -4.7048  -3.8385  -3.3451  -3.3451
    -1.5428  -1.2672  -1.2672   0.6242   1.4689   1.4689   1.9641   1.9834

          k = 0.1875 0.2500 0.0000 ( 31835 PWs)   bands (ev):

   -10.0115  -8.6138  -6.4540  -5.5493  -4.4798  -4.1686  -3.5978  -3.1099
    -2.0876  -1.3135  -1.0431  -0.1746   0.7200   1.1609   1.6745   2.1931

          k = 0.1875 0.3125 0.0000 ( 31878 PWs)   bands (ev):

    -9.6925  -8.2973  -6.3371  -6.1411  -4.9735  -4.1498  -3.2898  -2.8662
    -2.7959  -1.0219  -0.9267  -0.7813   0.0203   0.4143   1.7431   2.2942

          k = 0.1875 0.3750 0.0000 ( 31879 PWs)   bands (ev):

    -9.3035  -7.9114  -7.0628  -5.7597  -5.6898  -3.7802  -3.5658  -2.9167
    -2.4352  -1.6200  -0.8378  -0.6926  -0.2467  -0.2464   1.3577   1.7527

          k = 0.1875 0.4375 0.0000 ( 31884 PWs)   bands (ev):

    -8.8452  -7.7238  -7.4567  -6.3446  -5.3105  -4.2122  -3.3420  -2.5020
    -2.2282  -1.9998  -1.4024  -0.9474  -0.1987   0.1172   0.8034   1.1483

          k = 0.1875-0.5000 0.0000 ( 31874 PWs)   bands (ev):

    -8.3183  -8.3183  -6.9341  -6.9341  -4.7943  -4.7943  -2.8410  -2.8410
    -1.9566  -1.9566  -1.5006  -1.5006   0.2711   0.2711   0.5983   0.5983

          k = 0.2500 0.2500 0.0000 ( 31887 PWs)   bands (ev):

    -9.7633  -8.3676  -6.2106  -5.3105  -5.3105  -3.9435  -3.9435  -3.3585
    -1.8570  -1.8570  -1.0883  -0.9862   0.3565   0.9313   0.9313   2.2337

          k = 0.2500 0.3125 0.0000 ( 31922 PWs)   bands (ev):

    -9.4448  -8.0516  -6.0958  -5.8983  -5.0162  -4.7091  -3.6392  -3.0536
    -2.6214  -1.7438  -1.5656  -0.8255  -0.3672   0.2120   1.1711   1.6338

          k = 0.2500 0.3750 0.0000 ( 31859 PWs)   bands (ev):

    -9.0565  -7.6664  -6.8199  -5.5177  -5.4520  -4.6158  -3.3323  -3.2626
    -2.7043  -2.4208  -1.2390  -1.1363  -0.4311  -0.3948   0.9660   1.2902

          k = 0.2500 0.4375 0.0000 ( 31901 PWs)   bands (ev):

    -8.5990  -7.4795  -7.2126  -6.1031  -5.0694  -4.1764  -3.9736  -3.0989
    -2.8272  -2.2282  -1.7557  -1.2403  -0.6255   0.0086   0.3506   0.9653

          k = 0.2500-0.5000 0.0000 ( 31884 PWs)   bands (ev):

    -8.0730  -8.0730  -6.6910  -6.6910  -4.5543  -4.5543  -3.6689  -3.6689
    -2.3229  -2.3229  -1.7398  -1.7398  -0.1966  -0.1966   0.4757   0.4757

          k = 0.3125 0.3125 0.0000 ( 31923 PWs)   bands (ev):

    -9.1270  -7.7364  -5.7869  -5.7869  -5.5869  -4.4153  -4.4153  -2.7718
    -2.4858  -2.3224  -2.3224  -1.2000  -0.4603   0.4820   0.4820   0.9043

          k = 0.3125 0.3750 0.0000 ( 31919 PWs)   bands (ev):

    -8.7396  -7.3521  -6.5083  -5.4226  -5.2073  -5.1181  -4.0416  -3.2294
    -3.0252  -2.3646  -1.9631  -1.8851  -0.1791  -0.1232   0.2246   0.7843

          k = 0.3125 0.4375 0.0000 ( 31918 PWs)   bands (ev):

    -8.2831  -7.1663  -6.8995  -5.7954  -4.9527  -4.7602  -3.8674  -3.6687
    -3.5989  -2.5195  -1.9433  -1.5703  -0.7590  -0.3882   0.2781   0.9635

          k = 0.3125-0.5000 0.0000 ( 31864 PWs)   bands (ev):

    -7.7583  -7.7583  -6.3796  -6.3796  -4.4439  -4.4439  -4.2467  -4.2467
    -3.0920  -3.0920  -1.5105  -1.5105  -0.8830  -0.8830   0.7020   0.7020

          k = 0.3750 0.3750 0.0000 ( 31936 PWs)   bands (ev):

    -8.3532  -6.9690  -6.1294  -6.1294  -4.8290  -4.7549  -4.7549  -3.9339
    -2.6575  -2.6575  -2.5854  -2.0113  -0.4525   0.1560   0.1560   0.2121

          k = 0.3750 0.4375 0.0000 ( 31936 PWs)   bands (ev):

    -7.8979  -6.7845  -6.5181  -5.6950  -5.3923  -4.5783  -4.3835  -4.3118
    -3.2958  -3.2253  -2.2301  -1.6461  -1.0128  -0.4427   0.5236   0.5700

          k = 0.3750-0.5000 0.0000 ( 31974 PWs)   bands (ev):

    -7.3747  -7.3747  -6.0020  -6.0020  -5.1561  -5.1561  -3.8721  -3.8721
    -3.8012  -3.8012  -1.7703  -1.7703  -0.9574  -0.9574   0.7666   0.7666

          k = 0.4375 0.4375 0.0000 ( 31954 PWs)   bands (ev):

    -7.4443  -6.3356  -6.3356  -6.0710  -5.2241  -4.9595  -4.9595  -3.9402
    -3.8687  -2.8595  -2.8595  -1.8372  -1.0237  -0.0412  -0.0412   0.7008

          k = 0.4375-0.5000 0.0000 ( 31974 PWs)   bands (ev):

    -6.9229  -6.9229  -5.8317  -5.8317  -5.5298  -5.5298  -4.4475  -4.4475
    -3.4314  -3.4314  -2.3641  -2.3641  -0.5752  -0.5752   0.3926   0.3926

          k =-0.5000-0.5000 0.0000 ( 32032 PWs)   bands (ev):

    -6.4045  -6.4045  -6.4045  -6.4045  -5.0279  -5.0279  -5.0278  -5.0278
    -2.9270  -2.9270  -2.9270  -2.9270  -0.1072  -0.1072  -0.1071  -0.1071

     the Fermi energy is    -0.1639 ev

!    total energy              =     -99.58831564 Ry
     Harris-Foulkes estimate   =     -99.58831564 Ry
     estimated scf accuracy    <          3.1E-09 Ry

     The total energy is the sum of the following terms:

     one-electron contribution =    -398.46304761 Ry
     hartree contribution      =     204.04131068 Ry
     xc contribution           =     -79.84482384 Ry
     ewald contribution        =     174.67803489 Ry
     smearing contrib. (-TS)   =       0.00021024 Ry

     convergence has been achieved in   8 iterations

     Forces acting on atoms (Ry/au):


     negative rho (up, down):  5.152E-06 0.000E+00
     atom    1 type  1   force =     0.00000000    0.00000000   -0.00429004
     atom    2 type  1   force =     0.00000000    0.00000000   -0.00429004
     atom    3 type  1   force =     0.00000000    0.00000000    0.00038035
     atom    4 type  1   force =     0.00000000    0.00000000    0.00038035
     atom    5 type  1   force =     0.00000000    0.00000000   -0.00038099
     atom    6 type  1   force =     0.00000000    0.00000000   -0.00038098
     atom    7 type  1   force =     0.00000000    0.00000000    0.00429068
     atom    8 type  1   force =     0.00000000    0.00000000    0.00429068

     Total force =     0.008614     Total SCF correction =     0.000072


     entering subroutine stress ...


     negative rho (up, down):  5.152E-06 0.000E+00
          total   stress  (Ry/bohr**3)                   (kbar)     P=   -7.55
  -0.00009498   0.00000000   0.00000000        -13.97      0.00      0.00
   0.00000000  -0.00009498   0.00000000          0.00    -13.97      0.00
   0.00000000   0.00000000   0.00003596          0.00      0.00      5.29


     number of scf cycles    =   3
     number of bfgs steps    =   2

     energy   old            =     -99.5882135552 Ry
     energy   new            =     -99.5883156414 Ry

     CASE: energy  _new < energy  _old

     new trust radius        =       0.0083181794 bohr
     new conv_thr            =       0.0000000102 Ry


ATOMIC_POSITIONS (crystal)
Al       0.000000000   0.000000000  -0.000414276
Al       0.500000000   0.500000000  -0.000414275
Al       0.500000000   0.000000000   0.083405721
Al       0.000000000   0.500000000   0.083405721
Al       0.000000000   0.000000000   0.166594293
Al       0.500000000   0.500000000   0.166594290
Al       0.500000000   0.000000000   0.250414263
Al       0.000000000   0.500000000   0.250414263



     Writing output data file Al_100_2_4.save
     NEW-OLD atomic charge density approx. for the potential

     negative rho (up, down):  4.659E-06 0.000E+00

     total cpu time spent up to now is     1593.7 secs

     per-process dynamical memory:   452.3 Mb

     Self-consistent Calculation

     iteration #  1     ecut=    80.00 Ry     beta=0.30
     Davidson diagonalization with overlap
     ethr =  1.00E-06,  avg # of iterations =  3.0

     Threshold (ethr) on eigenvalues was too large:
     Diagonalizing with lowered threshold

     Davidson diagonalization with overlap
     ethr =  4.73E-08,  avg # of iterations =  2.6

     negative rho (up, down):  4.560E-06 0.000E+00

     total cpu time spent up to now is     1711.8 secs

     total energy              =     -99.58845142 Ry
     Harris-Foulkes estimate   =     -99.58845277 Ry
     estimated scf accuracy    <       0.00001466 Ry

     iteration #  2     ecut=    80.00 Ry     beta=0.30
     Davidson diagonalization with overlap
     ethr =  6.11E-08,  avg # of iterations =  1.0

     negative rho (up, down):  5.298E-06 0.000E+00

     total cpu time spent up to now is     1757.9 secs

     total energy              =     -99.58844795 Ry
     Harris-Foulkes estimate   =     -99.58845155 Ry
     estimated scf accuracy    <       0.00000954 Ry

     iteration #  3     ecut=    80.00 Ry     beta=0.30
     Davidson diagonalization with overlap
     ethr =  3.98E-08,  avg # of iterations =  2.0

     negative rho (up, down):  5.199E-06 0.000E+00

     total cpu time spent up to now is     1813.7 secs

     total energy              =     -99.58844993 Ry
     Harris-Foulkes estimate   =     -99.58845029 Ry
     estimated scf accuracy    <       0.00000199 Ry

     iteration #  4     ecut=    80.00 Ry     beta=0.30
     Davidson diagonalization with overlap
     ethr =  8.28E-09,  avg # of iterations =  1.6

     negative rho (up, down):  4.982E-06 0.000E+00

     total cpu time spent up to now is     1859.8 secs

     total energy              =     -99.58845003 Ry
     Harris-Foulkes estimate   =     -99.58845006 Ry
     estimated scf accuracy    <       0.00000030 Ry

     iteration #  5     ecut=    80.00 Ry     beta=0.30
     Davidson diagonalization with overlap
     ethr =  1.25E-09,  avg # of iterations =  2.3

     negative rho (up, down):  5.036E-06 0.000E+00

     total cpu time spent up to now is     1910.7 secs

     total energy              =     -99.58845006 Ry
     Harris-Foulkes estimate   =     -99.58845007 Ry
     estimated scf accuracy    <       0.00000003 Ry

     iteration #  6     ecut=    80.00 Ry     beta=0.30
     Davidson diagonalization with overlap
     ethr =  1.16E-10,  avg # of iterations =  2.9

     negative rho (up, down):  5.307E-06 0.000E+00

     total cpu time spent up to now is     1973.1 secs

     total energy              =     -99.58845006 Ry
     Harris-Foulkes estimate   =     -99.58845007 Ry
     estimated scf accuracy    <       0.00000008 Ry

     iteration #  7     ecut=    80.00 Ry     beta=0.30
     Davidson diagonalization with overlap
     ethr =  1.16E-10,  avg # of iterations =  1.2

     negative rho (up, down):  5.499E-06 0.000E+00

     total cpu time spent up to now is     2020.3 secs

     total energy              =     -99.58845005 Ry
     Harris-Foulkes estimate   =     -99.58845006 Ry
     estimated scf accuracy    <       0.00000002 Ry

     iteration #  8     ecut=    80.00 Ry     beta=0.30
     Davidson diagonalization with overlap
     ethr =  9.55E-11,  avg # of iterations =  1.0

     negative rho (up, down):  5.090E-06 0.000E+00

     total cpu time spent up to now is     2063.0 secs

     End of self-consistent calculation

          k = 0.0000 0.0000 0.0000 ( 31917 PWs)   bands (ev):

   -10.8928  -9.4845  -7.3277  -4.4655  -2.6445  -2.6445  -2.1423  -1.3418
    -1.3418  -1.2689  -1.2689   0.1793   0.1793   0.6690   0.6690   1.3241

          k = 0.0000 0.0625 0.0000 ( 31885 PWs)   bands (ev):

   -10.8571  -9.4490  -7.2927  -4.4307  -3.2082  -2.6117  -2.1091  -1.8893
    -1.3090  -1.2086  -0.6573   0.1237   0.2648   0.7017   0.7578   1.3566

          k = 0.0000 0.1250 0.0000 ( 31839 PWs)   bands (ev):

   -10.7500  -9.3428  -7.1876  -4.3266  -4.1063  -2.7633  -2.5133  -2.0095
    -1.2106  -1.1043  -0.7030   0.1952   0.5671   0.7996   1.4533   1.7615

          k = 0.0000 0.1875 0.0000 ( 31878 PWs)   bands (ev):

   -10.5718  -9.1660  -7.0127  -5.0013  -4.1532  -3.6446  -2.3492  -1.8437
    -1.5653  -1.0467  -0.9356   0.4420   0.9628   1.1657   1.6109   1.6807

          k = 0.0000 0.2500 0.0000 ( 31868 PWs)   bands (ev):

   -10.3226  -8.9187  -6.7682  -5.8494  -4.4831  -3.9111  -2.3896  -2.1195
    -1.6120  -0.8172  -0.7087   0.4094   0.6801   1.1913   1.8185   2.0839

          k = 0.0000 0.3125 0.0000 ( 31850 PWs)   bands (ev):

   -10.0029  -8.6014  -6.6396  -6.4545  -5.2656  -3.6008  -3.1604  -1.8242
    -1.3145  -0.5439  -0.5222  -0.1891   0.9577   1.3286   1.4850   1.8847

          k = 0.0000 0.3750 0.0000 ( 31908 PWs)   bands (ev):

    -9.6130  -8.2146  -7.3671  -6.0721  -5.9867  -3.8717  -3.2232  -1.4631
    -1.0813  -0.9520  -0.1615   0.0283   0.6388   1.0242   1.5144   1.8439

          k = 0.0000 0.4375 0.0000 ( 31884 PWs)   bands (ev):

    -9.1537  -8.0297  -7.7588  -6.6438  -5.6217  -4.5203  -2.7794  -1.7020
    -1.0362  -0.5256   0.0147   0.2648   0.4472   0.5032   1.3140   1.4556

          k = 0.0000-0.5000 0.0000 ( 31834 PWs)   bands (ev):

    -8.6256  -8.6256  -7.2349  -7.2349  -5.1040  -5.1040  -2.2712  -2.2712
    -0.5436  -0.5436  -0.0378  -0.0378   0.7566   0.7566   0.9309   0.9309

          k = 0.0625 0.0625 0.0000 ( 31859 PWs)   bands (ev):

   -10.8214  -9.4136  -7.2576  -4.3960  -3.1753  -3.1753  -2.0759  -1.8471
    -1.8471  -0.5976  -0.5976   0.1860   0.1860   0.8051   0.8051   1.3885

          k = 0.0625 0.1250 0.0000 ( 31856 PWs)   bands (ev):

   -10.7144  -9.3074  -7.1526  -4.2919  -4.0727  -3.0812  -2.7182  -1.9764
    -1.7452  -0.6664  -0.4892   0.2842   0.4475   0.9365   1.4822   1.8395

          k = 0.0625 0.1875 0.0000 ( 31887 PWs)   bands (ev):

   -10.5362  -9.1306  -6.9778  -4.9672  -4.1186  -3.6131  -2.9016  -1.8107
    -1.5927  -1.5160  -0.3238   0.4337   1.0192   1.2635   1.6235   1.7213

          k = 0.0625 0.2500 0.0000 ( 31885 PWs)   bands (ev):

   -10.2871  -8.8834  -6.7333  -5.8151  -4.4494  -3.8767  -2.6708  -2.3564
    -1.5791  -1.3444  -0.1185   0.4012   0.7730   1.2602   1.4947   1.9575

          k = 0.0625 0.3125 0.0000 ( 31871 PWs)   bands (ev):

    -9.9674  -8.5662  -6.6050  -6.4197  -5.2314  -3.5666  -3.1267  -2.3722
    -1.2820  -1.0469  -0.3741   0.2734   0.7950   1.0091   1.4919   1.9522

          k = 0.0625 0.3750 0.0000 ( 31889 PWs)   bands (ev):

    -9.5776  -8.1795  -7.3323  -6.0374  -5.9523  -3.8377  -3.1892  -2.0091
    -1.0315  -0.9203  -0.6842   0.1130   0.6140   1.1447   1.3610   1.4346

          k = 0.0625 0.4375 0.0000 ( 31904 PWs)   bands (ev):

    -9.1184  -7.9947  -7.7238  -6.6091  -5.5871  -4.4860  -2.7461  -1.7056
    -1.5304  -0.5105  -0.4964  -0.2608   0.5616   0.8142   1.0344   1.7817

          k = 0.0625-0.5000 0.0000 ( 31898 PWs)   bands (ev):

    -8.5905  -8.5905  -7.2000  -7.2000  -5.0696  -5.0696  -2.2397  -2.2397
    -1.0698  -1.0698  -0.0340  -0.0340   0.2817   0.2817   1.5110   1.5110

          k = 0.1250 0.1250 0.0000 ( 31863 PWs)   bands (ev):

   -10.6074  -9.2013  -7.0477  -4.1879  -3.9724  -3.9724  -2.6206  -2.6206
    -1.8771  -0.5684  -0.5684   0.5802   0.5802   1.5560   1.9497   1.9498

          k = 0.1250 0.1875 0.0000 ( 31832 PWs)   bands (ev):

   -10.4294  -9.0246  -6.8730  -4.8652  -4.0150  -3.8147  -3.4910  -2.4535
    -1.7118  -1.4307  -0.4101   0.7331   1.3868   1.4075   1.7284   1.8916

          k = 0.1250 0.2500 0.0000 ( 31879 PWs)   bands (ev):

   -10.1804  -8.7776  -6.6287  -5.7120  -4.3503  -3.7734  -3.5573  -2.2721
    -2.2008  -1.4808  -0.2101   0.5510   0.6820   1.0452   2.0226   2.0331

          k = 0.1250 0.3125 0.0000 ( 31887 PWs)   bands (ev):

    -9.8610  -8.4607  -6.5011  -6.3154  -5.1291  -3.4640  -3.2574  -3.0257
    -1.9159  -1.1851  -0.3131  -0.0584   0.2356   1.2768   1.3123   1.8569

          k = 0.1250 0.3750 0.0000 ( 31881 PWs)   bands (ev):

    -9.4715  -8.0742  -7.2279  -5.9334  -5.8489  -3.7358  -3.0878  -2.8889
    -1.5494  -0.9393  -0.8271  -0.7470   0.5377   0.5925   1.2509   1.6654

          k = 0.1250 0.4375 0.0000 ( 31877 PWs)   bands (ev):

    -9.0126  -7.8898  -7.6189  -6.5051  -5.4835  -4.3834  -2.6473  -2.4571
    -1.5567  -1.3738  -1.1185  -0.4299  -0.0052   0.6572   0.9532   1.9783

          k = 0.1250-0.5000 0.0000 ( 31862 PWs)   bands (ev):

    -8.4851  -8.4851  -7.0956  -7.0956  -4.9665  -4.9665  -2.1680  -2.1680
    -1.9123  -1.9123  -0.6316  -0.6316   0.1217   0.1217   1.4377   1.4377

          k = 0.1875 0.1875 0.0000 ( 31865 PWs)   bands (ev):

   -10.2515  -8.8482  -6.6985  -4.6960  -4.6960  -3.8425  -3.3323  -3.3323
    -1.5472  -1.2677  -1.2677   0.6329   1.4669   1.4669   1.9776   1.9910

          k = 0.1875 0.2500 0.0000 ( 31835 PWs)   bands (ev):

   -10.0029  -8.6015  -6.4546  -5.5406  -4.4707  -4.1561  -3.6017  -3.0970
    -2.0881  -1.3178  -1.0436  -0.1657   0.7168   1.1743   1.6719   2.2017

          k = 0.1875 0.3125 0.0000 ( 31878 PWs)   bands (ev):

    -9.6838  -8.2849  -6.3284  -6.1417  -4.9609  -4.1409  -3.2936  -2.8641
    -2.7856  -1.0261  -0.9179  -0.7820   0.0170   0.4275   1.7415   2.2910

          k = 0.1875 0.3750 0.0000 ( 31879 PWs)   bands (ev):

    -9.2949  -7.8990  -7.0541  -5.7603  -5.6772  -3.7713  -3.5662  -2.9204
    -2.4224  -1.6114  -0.8410  -0.6953  -0.2473  -0.2350   1.3551   1.7523

          k = 0.1875 0.4375 0.0000 ( 31884 PWs)   bands (ev):

    -8.8365  -7.7151  -7.4443  -6.3321  -5.3110  -4.2127  -3.3332  -2.5038
    -2.2215  -1.9869  -1.4062  -0.9350  -0.2020   0.1168   0.8001   1.1480

          k = 0.1875-0.5000 0.0000 ( 31874 PWs)   bands (ev):

    -8.3096  -8.3096  -6.9216  -6.9216  -4.7948  -4.7948  -2.8321  -2.8321
    -1.9605  -1.9605  -1.4877  -1.4877   0.2675   0.2675   0.5979   0.5979

          k = 0.2500 0.2500 0.0000 ( 31887 PWs)   bands (ev):

    -9.7547  -8.3552  -6.2112  -5.3018  -5.3018  -3.9308  -3.9308  -3.3624
    -1.8574  -1.8574  -1.0925  -0.9774   0.3697   0.9281   0.9281   2.2305

          k = 0.2500 0.3125 0.0000 ( 31922 PWs)   bands (ev):

    -9.4362  -8.0392  -6.0870  -5.8989  -5.0071  -4.6967  -3.6264  -3.0573
    -2.6219  -1.7351  -1.5661  -0.8282  -0.3555   0.2086   1.1685   1.6336

          k = 0.2500 0.3750 0.0000 ( 31859 PWs)   bands (ev):

    -9.0479  -7.6540  -6.8111  -5.5183  -5.4394  -4.6070  -3.3316  -3.2511
    -2.7062  -2.4139  -1.2398  -1.1241  -0.4344  -0.3980   0.9657   1.2886

          k = 0.2500 0.4375 0.0000 ( 31901 PWs)   bands (ev):

    -8.5903  -7.4709  -7.2002  -6.0906  -5.0700  -4.1676  -3.9741  -3.0900
    -2.8144  -2.2322  -1.7430  -1.2436  -0.6264   0.0049   0.3503   0.9626

          k = 0.2500-0.5000 0.0000 ( 31884 PWs)   bands (ev):

    -8.0643  -8.0643  -6.6786  -6.6786  -4.5549  -4.5549  -3.6600  -3.6600
    -2.3102  -2.3102  -1.7436  -1.7436  -0.1969  -0.1969   0.4723   0.4723

          k = 0.3125 0.3125 0.0000 ( 31923 PWs)   bands (ev):

    -9.1184  -7.7240  -5.7782  -5.7782  -5.5875  -4.4027  -4.4027  -2.7738
    -2.4789  -2.3229  -2.3229  -1.1879  -0.4636   0.4788   0.4788   0.9040

          k = 0.3125 0.3750 0.0000 ( 31919 PWs)   bands (ev):

    -8.7309  -7.3397  -6.4996  -5.4136  -5.2079  -5.1058  -4.0289  -3.2205
    -3.0257  -2.3686  -1.9636  -1.8724  -0.1826  -0.1268   0.2243   0.7817

          k = 0.3125 0.4375 0.0000 ( 31918 PWs)   bands (ev):

    -8.2744  -7.1576  -6.8870  -5.7828  -4.9439  -4.7608  -3.8586  -3.6688
    -3.5867  -2.5068  -1.9472  -1.5710  -0.7623  -0.3886   0.2746   0.9618

          k = 0.3125-0.5000 0.0000 ( 31864 PWs)   bands (ev):

    -7.7496  -7.7496  -6.3671  -6.3671  -4.4351  -4.4351  -4.2472  -4.2472
    -3.0793  -3.0793  -1.5138  -1.5138  -0.8838  -0.8838   0.6993   0.6993

          k = 0.3750 0.3750 0.0000 ( 31936 PWs)   bands (ev):

    -8.3445  -6.9566  -6.1207  -6.1207  -4.8295  -4.7423  -4.7423  -3.9251
    -2.6580  -2.6580  -2.5727  -2.0152  -0.4529   0.1527   0.1527   0.2086

          k = 0.3750 0.4375 0.0000 ( 31936 PWs)   bands (ev):

    -7.8893  -6.7758  -6.5056  -5.6860  -5.3800  -4.5695  -4.3840  -4.2992
    -3.2963  -3.2126  -2.2306  -1.6494  -1.0137  -0.4461   0.5210   0.5673

          k = 0.3750-0.5000 0.0000 ( 31974 PWs)   bands (ev):

    -7.3660  -7.3660  -5.9895  -5.9895  -5.1473  -5.1473  -3.8725  -3.8725
    -3.7887  -3.7887  -1.7711  -1.7711  -0.9607  -0.9607   0.7648   0.7648

          k = 0.4375 0.4375 0.0000 ( 31954 PWs)   bands (ev):

    -7.4356  -6.3269  -6.3269  -6.0585  -5.2153  -4.9469  -4.9469  -3.9406
    -3.8560  -2.8600  -2.8600  -1.8380  -1.0270  -0.0444  -0.0444   0.6991

          k = 0.4375-0.5000 0.0000 ( 31974 PWs)   bands (ev):

    -6.9142  -6.9142  -5.8227  -5.8227  -5.5176  -5.5176  -4.4349  -4.4349
    -3.4319  -3.4319  -2.3646  -2.3646  -0.5786  -0.5786   0.3900   0.3900

          k =-0.5000-0.5000 0.0000 ( 32032 PWs)   bands (ev):

    -6.3958  -6.3958  -6.3958  -6.3958  -5.0153  -5.0153  -5.0153  -5.0153
    -2.9275  -2.9275  -2.9275  -2.9275  -0.1104  -0.1104  -0.1104  -0.1104

     the Fermi energy is    -0.1617 ev

!    total energy              =     -99.58845005 Ry
     Harris-Foulkes estimate   =     -99.58845006 Ry
     estimated scf accuracy    <          8.1E-09 Ry

     The total energy is the sum of the following terms:

     one-electron contribution =    -397.98536612 Ry
     hartree contribution      =     203.80330435 Ry
     xc contribution           =     -79.84047415 Ry
     ewald contribution        =     174.43387031 Ry
     smearing contrib. (-TS)   =       0.00021556 Ry

     convergence has been achieved in   8 iterations

     Forces acting on atoms (Ry/au):


     negative rho (up, down):  5.090E-06 0.000E+00
     atom    1 type  1   force =     0.00000000    0.00000000   -0.00377111
     atom    2 type  1   force =     0.00000000    0.00000000   -0.00377111
     atom    3 type  1   force =     0.00000000    0.00000000   -0.00020204
     atom    4 type  1   force =     0.00000000    0.00000000   -0.00020204
     atom    5 type  1   force =     0.00000000    0.00000000    0.00020209
     atom    6 type  1   force =     0.00000000    0.00000000    0.00020210
     atom    7 type  1   force =     0.00000000    0.00000000    0.00377105
     atom    8 type  1   force =     0.00000000    0.00000000    0.00377105

     Total force =     0.007553     Total SCF correction =     0.000142


     entering subroutine stress ...


     negative rho (up, down):  5.090E-06 0.000E+00
          total   stress  (Ry/bohr**3)                   (kbar)     P=   -7.80
  -0.00009613   0.00000000   0.00000000        -14.14      0.00      0.00
   0.00000000  -0.00009613   0.00000000          0.00    -14.14      0.00
   0.00000000   0.00000000   0.00003310          0.00      0.00      4.87


     number of scf cycles    =   4
     number of bfgs steps    =   3

     energy   old            =     -99.5883156414 Ry
     energy   new            =     -99.5884500543 Ry

     CASE: energy  _new < energy  _old

     new trust radius        =       0.0124772691 bohr
     new conv_thr            =       0.0000000134 Ry


ATOMIC_POSITIONS (crystal)
Al       0.000000000   0.000000000  -0.000687702
Al       0.500000000   0.500000000  -0.000687700
Al       0.500000000   0.000000000   0.083421979
Al       0.000000000   0.500000000   0.083421979
Al       0.000000000   0.000000000   0.166578016
Al       0.500000000   0.500000000   0.166578013
Al       0.500000000   0.000000000   0.250687708
Al       0.000000000   0.500000000   0.250687708



     Writing output data file Al_100_2_4.save
     NEW-OLD atomic charge density approx. for the potential

     negative rho (up, down):  4.495E-06 0.000E+00

     total cpu time spent up to now is     2086.4 secs

     per-process dynamical memory:   452.3 Mb

     Self-consistent Calculation

     iteration #  1     ecut=    80.00 Ry     beta=0.30
     Davidson diagonalization with overlap
     ethr =  1.00E-06,  avg # of iterations =  3.0

     Threshold (ethr) on eigenvalues was too large:
     Diagonalizing with lowered threshold

     Davidson diagonalization with overlap
     ethr =  9.86E-08,  avg # of iterations =  1.2

     negative rho (up, down):  3.939E-06 0.000E+00

     total cpu time spent up to now is     2202.7 secs

     total energy              =     -99.58862034 Ry
     Harris-Foulkes estimate   =     -99.58862265 Ry
     estimated scf accuracy    <       0.00002447 Ry

     iteration #  2     ecut=    80.00 Ry     beta=0.30
     Davidson diagonalization with overlap
     ethr =  1.02E-07,  avg # of iterations =  1.0

     negative rho (up, down):  3.490E-06 0.000E+00

     total cpu time spent up to now is     2248.8 secs

     total energy              =     -99.58861471 Ry
     Harris-Foulkes estimate   =     -99.58862061 Ry
     estimated scf accuracy    <       0.00001561 Ry

     iteration #  3     ecut=    80.00 Ry     beta=0.30
     Davidson diagonalization with overlap
     ethr =  6.50E-08,  avg # of iterations =  2.0

     negative rho (up, down):  3.590E-06 0.000E+00

     total cpu time spent up to now is     2304.8 secs

     total energy              =     -99.58861804 Ry
     Harris-Foulkes estimate   =     -99.58861843 Ry
     estimated scf accuracy    <       0.00000277 Ry

     iteration #  4     ecut=    80.00 Ry     beta=0.30
     Davidson diagonalization with overlap
     ethr =  1.15E-08,  avg # of iterations =  1.0

     negative rho (up, down):  3.304E-06 0.000E+00

     total cpu time spent up to now is     2350.7 secs

     total energy              =     -99.58861805 Ry
     Harris-Foulkes estimate   =     -99.58861815 Ry
     estimated scf accuracy    <       0.00000100 Ry

     iteration #  5     ecut=    80.00 Ry     beta=0.30
     Davidson diagonalization with overlap
     ethr =  4.17E-09,  avg # of iterations =  1.6

     negative rho (up, down):  3.430E-06 0.000E+00

     total cpu time spent up to now is     2399.2 secs

     total energy              =     -99.58861803 Ry
     Harris-Foulkes estimate   =     -99.58861810 Ry
     estimated scf accuracy    <       0.00000022 Ry

     iteration #  6     ecut=    80.00 Ry     beta=0.30
     Davidson diagonalization with overlap
     ethr =  9.10E-10,  avg # of iterations =  3.0

     negative rho (up, down):  3.470E-06 0.000E+00

     total cpu time spent up to now is     2457.2 secs

     total energy              =     -99.58861809 Ry
     Harris-Foulkes estimate   =     -99.58861809 Ry
     estimated scf accuracy    <       0.00000008 Ry

     iteration #  7     ecut=    80.00 Ry     beta=0.30
     Davidson diagonalization with overlap
     ethr =  3.39E-10,  avg # of iterations =  1.0

     negative rho (up, down):  4.395E-06 0.000E+00

     total cpu time spent up to now is     2502.4 secs

     total energy              =     -99.58861808 Ry
     Harris-Foulkes estimate   =     -99.58861809 Ry
     estimated scf accuracy    <       0.00000008 Ry

     iteration #  8     ecut=    80.00 Ry     beta=0.30
     Davidson diagonalization with overlap
     ethr =  3.18E-10,  avg # of iterations =  2.0

     negative rho (up, down):  4.986E-06 0.000E+00

     total cpu time spent up to now is     2548.5 secs

     End of self-consistent calculation

          k = 0.0000 0.0000 0.0000 ( 31917 PWs)   bands (ev):

   -10.8800  -9.4677  -7.3288  -4.4721  -2.6312  -2.6312  -2.1494  -1.3227
    -1.3227  -1.2560  -1.2560   0.1952   0.1952   0.6680   0.6680   1.3103

          k = 0.0000 0.0625 0.0000 ( 31885 PWs)   bands (ev):

   -10.8443  -9.4322  -7.2938  -4.4373  -3.1950  -2.5984  -2.1162  -1.8711
    -1.2899  -1.1957  -0.6440   0.1286   0.2744   0.7006   0.7746   1.3429

          k = 0.0000 0.1250 0.0000 ( 31839 PWs)   bands (ev):

   -10.7373  -9.3260  -7.1887  -4.3331  -4.0933  -2.7455  -2.5000  -2.0166
    -1.1916  -1.0914  -0.7030   0.2098   0.5804   0.7986   1.4397   1.7737

          k = 0.0000 0.1875 0.0000 ( 31878 PWs)   bands (ev):

   -10.5590  -9.1491  -7.0138  -4.9884  -4.1598  -3.6270  -2.3359  -1.8508
    -1.5657  -1.0276  -0.9228   0.4573   0.9618   1.1596   1.5977   1.6936

          k = 0.0000 0.2500 0.0000 ( 31868 PWs)   bands (ev):

   -10.3099  -8.9018  -6.7693  -5.8365  -4.4657  -3.9176  -2.3902  -2.1062
    -1.6189  -0.7981  -0.6957   0.4029   0.6952   1.1902   1.8065   2.0975

          k = 0.0000 0.3125 0.0000 ( 31850 PWs)   bands (ev):

    -9.9901  -8.5845  -6.6267  -6.4555  -5.2483  -3.6072  -3.1611  -1.8108
    -1.3214  -0.5378  -0.5030  -0.1887   0.9718   1.3421   1.4839   1.8806

          k = 0.0000 0.3750 0.0000 ( 31908 PWs)   bands (ev):

    -9.6003  -8.1977  -7.3543  -6.0731  -5.9696  -3.8725  -3.2295  -1.4497
    -1.0863  -0.9588  -0.1423   0.0396   0.6523   1.0234   1.5250   1.8428

          k = 0.0000 0.4375 0.0000 ( 31884 PWs)   bands (ev):

    -9.1409  -8.0169  -7.7419  -6.6267  -5.6226  -4.5211  -2.7856  -1.7078
    -1.0228  -0.5323   0.0282   0.2840   0.4593   0.4973   1.3333   1.4678

          k = 0.0000-0.5000 0.0000 ( 31834 PWs)   bands (ev):

    -8.6128  -8.6128  -7.2179  -7.2179  -5.1049  -5.1049  -2.2773  -2.2773
    -0.5302  -0.5302  -0.0442  -0.0442   0.7759   0.7759   0.9433   0.9433

          k = 0.0625 0.0625 0.0000 ( 31859 PWs)   bands (ev):

   -10.8086  -9.3968  -7.2587  -4.4026  -3.1622  -3.1622  -2.0830  -1.8288
    -1.8288  -0.5845  -0.5845   0.1857   0.1857   0.8209   0.8209   1.3748

          k = 0.0625 0.1250 0.0000 ( 31856 PWs)   bands (ev):

   -10.7016  -9.2906  -7.1537  -4.2984  -4.0597  -3.0679  -2.7005  -1.9835
    -1.7268  -0.6668  -0.4761   0.2834   0.4610   0.9521   1.4689   1.8557

          k = 0.0625 0.1875 0.0000 ( 31887 PWs)   bands (ev):

   -10.5234  -9.1138  -6.9788  -4.9543  -4.1252  -3.5956  -2.8884  -1.8178
    -1.5774  -1.5135  -0.3107   0.4327   1.0353   1.2574   1.6117   1.7343

          k = 0.0625 0.2500 0.0000 ( 31885 PWs)   bands (ev):

   -10.2743  -8.8666  -6.7344  -5.8022  -4.4321  -3.8831  -2.6576  -2.3570
    -1.5861  -1.3262  -0.1060   0.3964   0.7712   1.2760   1.5046   1.9478

          k = 0.0625 0.3125 0.0000 ( 31871 PWs)   bands (ev):

    -9.9546  -8.5493  -6.5921  -6.4207  -5.2141  -3.5730  -3.1274  -2.3590
    -1.2889  -1.0286  -0.3779   0.2838   0.8082   1.0083   1.5032   1.9519

          k = 0.0625 0.3750 0.0000 ( 31889 PWs)   bands (ev):

    -9.5649  -8.1626  -7.3195  -6.0384  -5.9351  -3.8385  -3.1956  -1.9959
    -1.0373  -0.9271  -0.6659   0.1263   0.6261   1.1399   1.3602   1.4533

          k = 0.0625 0.4375 0.0000 ( 31904 PWs)   bands (ev):

    -9.1056  -7.9819  -7.7069  -6.5920  -5.5881  -4.4869  -2.7523  -1.7065
    -1.5223  -0.5029  -0.4973  -0.2428   0.5560   0.8327   1.0469   1.7810

[...]
     atom    4 type  1   force =     0.00000000    0.00000000   -0.00135385
     atom    5 type  1   force =     0.00000000    0.00000000    0.00135396
     atom    6 type  1   force =     0.00000000    0.00000000    0.00135398
     atom    7 type  1   force =     0.00000000    0.00000000   -0.00066950
     atom    8 type  1   force =     0.00000000    0.00000000   -0.00066950

     Total force =     0.003021     Total SCF correction =     0.000043


     entering subroutine stress ...


     negative rho (up, down):  4.228E-06 0.000E+00
          total   stress  (Ry/bohr**3)                   (kbar)     P=  -11.01
  -0.00011123   0.00000000   0.00000000        -16.36      0.00      0.00
   0.00000000  -0.00011123   0.00000000          0.00    -16.36      0.00
   0.00000000   0.00000000  -0.00000205          0.00      0.00     -0.30


     number of scf cycles    =  10
     number of bfgs steps    =   9

     energy   old            =     -99.5890946576 Ry
     energy   new            =     -99.5891645333 Ry

     CASE: energy  _new < energy  _old

     new trust radius        =       0.0066764785 bohr
     new conv_thr            =       0.0000000100 Ry


ATOMIC_POSITIONS (crystal)
Al       0.000000000   0.000000000  -0.002694038
Al       0.500000000   0.500000000  -0.002694033
Al       0.500000000   0.000000000   0.082706419
Al       0.000000000   0.500000000   0.082706419
Al       0.000000000   0.000000000   0.167293588
Al       0.500000000   0.500000000   0.167293582
Al       0.500000000   0.000000000   0.252694031
Al       0.000000000   0.500000000   0.252694031



     Writing output data file Al_100_2_4.save
     NEW-OLD atomic charge density approx. for the potential

     negative rho (up, down):  4.354E-06 0.000E+00

     total cpu time spent up to now is     5415.9 secs

     per-process dynamical memory:   452.3 Mb

     Self-consistent Calculation

     iteration #  1     ecut=    80.00 Ry     beta=0.30
     Davidson diagonalization with overlap
     ethr =  1.00E-06,  avg # of iterations =  2.8

     Threshold (ethr) on eigenvalues was too large:
     Diagonalizing with lowered threshold

     Davidson diagonalization with overlap
     ethr =  9.49E-08,  avg # of iterations =  1.7

     negative rho (up, down):  4.532E-06 0.000E+00

     total cpu time spent up to now is     5523.7 secs

     total energy              =     -99.58919116 Ry
     Harris-Foulkes estimate   =     -99.58919343 Ry
     estimated scf accuracy    <       0.00002337 Ry

     iteration #  2     ecut=    80.00 Ry     beta=0.30
     Davidson diagonalization with overlap
     ethr =  9.74E-08,  avg # of iterations =  1.0

     negative rho (up, down):  5.245E-06 0.000E+00

     total cpu time spent up to now is     5571.2 secs

     total energy              =     -99.58918604 Ry
     Harris-Foulkes estimate   =     -99.58919142 Ry
     estimated scf accuracy    <       0.00001419 Ry

     iteration #  3     ecut=    80.00 Ry     beta=0.30
     Davidson diagonalization with overlap
     ethr =  5.91E-08,  avg # of iterations =  2.4

     negative rho (up, down):  5.286E-06 0.000E+00

     total cpu time spent up to now is     5624.7 secs

     total energy              =     -99.58918927 Ry
     Harris-Foulkes estimate   =     -99.58918919 Ry
     estimated scf accuracy    <       0.00000147 Ry

     iteration #  4     ecut=    80.00 Ry     beta=0.30
     Davidson diagonalization with overlap
     ethr =  6.12E-09,  avg # of iterations =  1.0

     negative rho (up, down):  4.907E-06 0.000E+00

     total cpu time spent up to now is     5670.2 secs

     total energy              =     -99.58918882 Ry
     Harris-Foulkes estimate   =     -99.58918930 Ry
     estimated scf accuracy    <       0.00000191 Ry

     iteration #  5     ecut=    80.00 Ry     beta=0.30
     Davidson diagonalization with overlap
     ethr =  6.12E-09,  avg # of iterations =  1.8

     negative rho (up, down):  4.594E-06 0.000E+00

     total cpu time spent up to now is     5718.3 secs

     total energy              =     -99.58918900 Ry
     Harris-Foulkes estimate   =     -99.58918902 Ry
     estimated scf accuracy    <       0.00000010 Ry

     iteration #  6     ecut=    80.00 Ry     beta=0.30
     Davidson diagonalization with overlap
     ethr =  4.00E-10,  avg # of iterations =  2.9

     negative rho (up, down):  4.674E-06 0.000E+00

     total cpu time spent up to now is     5775.8 secs

     total energy              =     -99.58918902 Ry
     Harris-Foulkes estimate   =     -99.58918903 Ry
     estimated scf accuracy    <       0.00000006 Ry

     iteration #  7     ecut=    80.00 Ry     beta=0.30
     Davidson diagonalization with overlap
     ethr =  2.55E-10,  avg # of iterations =  1.4

     negative rho (up, down):  4.659E-06 0.000E+00

     total cpu time spent up to now is     5823.0 secs

     total energy              =     -99.58918902 Ry
     Harris-Foulkes estimate   =     -99.58918902 Ry
     estimated scf accuracy    <       0.00000002 Ry

     iteration #  8     ecut=    80.00 Ry     beta=0.30
     Davidson diagonalization with overlap
     ethr =  6.42E-11,  avg # of iterations =  1.0

     negative rho (up, down):  4.628E-06 0.000E+00

     total cpu time spent up to now is     5867.9 secs

     total energy              =     -99.58918902 Ry
     Harris-Foulkes estimate   =     -99.58918902 Ry
     estimated scf accuracy    <       0.00000003 Ry

     iteration #  9     ecut=    80.00 Ry     beta=0.30
     Davidson diagonalization with overlap
     ethr =  6.42E-11,  avg # of iterations =  1.0

     negative rho (up, down):  4.227E-06 0.000E+00

     total cpu time spent up to now is     5910.0 secs

     End of self-consistent calculation

          k = 0.0000 0.0000 0.0000 ( 31917 PWs)   bands (ev):

   -10.7604  -9.3936  -7.3126  -4.5212  -2.5053  -2.5053  -2.1993  -1.2399
    -1.2399  -1.1337  -1.1337   0.2653   0.2653   0.6945   0.6945   1.2013

          k = 0.0000 0.0625 0.0000 ( 31885 PWs)   bands (ev):

   -10.7247  -9.3581  -7.2775  -4.4864  -3.0710  -2.4725  -2.1660  -1.7883
    -1.2071  -1.0773  -0.5191   0.1695   0.3252   0.7271   0.8495   1.2342

          k = 0.0000 0.1250 0.0000 ( 31839 PWs)   bands (ev):

   -10.6176  -9.2519  -7.1724  -4.3821  -3.9705  -2.6658  -2.3740  -2.0663
    -1.1087  -0.9723  -0.6779   0.3028   0.6776   0.8251   1.3322   1.8122

          k = 0.0000 0.1875 0.0000 ( 31878 PWs)   bands (ev):

   -10.4394  -9.0749  -6.9974  -4.8664  -4.2085  -3.5489  -2.2099  -1.9001
    -1.5433  -0.9447  -0.8027   0.5304   0.9883   1.1167   1.4931   1.8129

          k = 0.0000 0.2500 0.0000 ( 31868 PWs)   bands (ev):

   -10.1902  -8.8276  -6.7527  -5.7152  -4.3886  -3.9660  -2.3693  -1.9800
    -1.6678  -0.7151  -0.5743   0.3545   0.7663   1.2167   1.7100   2.2252

          k = 0.0000 0.3125 0.0000 ( 31850 PWs)   bands (ev):

    -9.8704  -8.5101  -6.5058  -6.4387  -5.1719  -3.6552  -3.1412  -1.6845
    -1.3697  -0.4976  -0.4199  -0.1574   1.0380   1.4697   1.5104   1.8437

          k = 0.0000 0.3750 0.0000 ( 31908 PWs)   bands (ev):

    -9.4804  -8.1231  -7.2338  -6.0560  -5.8938  -3.8534  -3.2768  -1.3232
    -1.1227  -1.0063  -0.0591   0.1471   0.7796   1.0085   1.5672   1.8693

          k = 0.0000 0.4375 0.0000 ( 31884 PWs)   bands (ev):

    -9.0210  -7.8966  -7.6671  -6.5513  -5.6052  -4.5026  -2.8321  -1.7507
    -0.8962  -0.5786   0.1553   0.3673   0.4563   0.5732   1.4167   1.5821

          k = 0.0000-0.5000 0.0000 ( 31834 PWs)   bands (ev):

    -8.4927  -8.4927  -7.1428  -7.1428  -5.0870  -5.0870  -2.3225  -2.3225
    -0.4033  -0.4033  -0.0889  -0.0889   0.8592   0.8592   1.0595   1.0595

          k = 0.0625 0.0625 0.0000 ( 31859 PWs)   bands (ev):

   -10.6890  -9.3227  -7.2425  -4.4516  -3.0380  -3.0380  -2.1328  -1.7478
    -1.7478  -0.4621  -0.4621   0.2119   0.2119   0.8912   0.8912   1.2666

          k = 0.0625 0.1250 0.0000 ( 31856 PWs)   bands (ev):

   -10.5819  -9.2165  -7.1374  -4.3474  -3.9369  -2.9436  -2.6217  -2.0331
    -1.6461  -0.6436  -0.3542   0.3081   0.5854   1.0221   1.3628   1.9231

          k = 0.0625 0.1875 0.0000 ( 31887 PWs)   bands (ev):

   -10.4037  -9.0396  -6.9624  -4.8323  -4.1739  -3.5169  -2.7652  -1.8670
    -1.5187  -1.4702  -0.1881   0.4560   1.1142   1.2110   1.5154   1.8512

          k = 0.0625 0.2500 0.0000 ( 31885 PWs)   bands (ev):

   -10.1546  -8.7923  -6.7178  -5.6808  -4.3548  -3.9315  -2.5336  -2.3359
    -1.6349  -1.2464   0.0101   0.3703   0.7784   1.3496   1.5780   1.8948

          k = 0.0625 0.3125 0.0000 ( 31871 PWs)   bands (ev):

    -9.8349  -8.4749  -6.4712  -6.4039  -5.1377  -3.6208  -3.1074  -2.2345
    -1.3371  -0.9485  -0.4069   0.3875   0.9323   1.0298   1.5493   1.9385

          k = 0.0625 0.3750 0.0000 ( 31889 PWs)   bands (ev):

    -9.4450  -8.0880  -7.1989  -6.0213  -5.8592  -3.8193  -3.2428  -1.8709
    -1.0795  -0.9743  -0.5858   0.2511   0.7414   1.1036   1.3829   1.5341

          k = 0.0625 0.4375 0.0000 ( 31904 PWs)   bands (ev):

    -8.9857  -7.8616  -7.6321  -6.5166  -5.5706  -4.4684  -2.7985  -1.7275
    -1.4215  -0.5487  -0.3731  -0.1641   0.5147   0.9128   1.1650   1.8038

          k = 0.0625-0.5000 0.0000 ( 31898 PWs)   bands (ev):

    -8.4576  -8.4576  -7.1080  -7.1080  -5.0526  -5.0526  -2.2900  -2.2900
    -0.9338  -0.9338  -0.0734  -0.0734   0.3687   0.3687   1.6423   1.6423

          k = 0.1250 0.1250 0.0000 ( 31863 PWs)   bands (ev):

   -10.4750  -9.1103  -7.0324  -4.2433  -3.8363  -3.8363  -2.5243  -2.5243
    -1.9335  -0.5463  -0.5463   0.7177   0.7177   1.4483   2.0385   2.0385

          k = 0.1250 0.1875 0.0000 ( 31832 PWs)   bands (ev):

   -10.2969  -8.9335  -6.8575  -4.7301  -4.0700  -3.6784  -3.3963  -2.3568
    -1.7678  -1.4104  -0.3881   0.8674   1.3340   1.4649   1.8465   1.8641

          k = 0.1250 0.2500 0.0000 ( 31879 PWs)   bands (ev):

   -10.0479  -8.6864  -6.6131  -5.5777  -4.2549  -3.8280  -3.4225  -2.2373
    -2.1196  -1.5363  -0.1903   0.5211   0.8171   1.1575   1.9111   2.1210

          k = 0.1250 0.3125 0.0000 ( 31887 PWs)   bands (ev):

    -9.7285  -8.3693  -6.3673  -6.2995  -5.0352  -3.5180  -3.1215  -3.0062
    -1.8202  -1.2396  -0.3471   0.0783   0.2422   1.3745   1.4413   1.8203

          k = 0.1250 0.3750 0.0000 ( 31881 PWs)   bands (ev):

    -9.3389  -7.9827  -7.0945  -5.9172  -5.7558  -3.7173  -3.1408  -2.7523
    -1.4533  -0.9884  -0.8799  -0.6111   0.5560   0.6889   1.2052   1.7974

          k = 0.1250 0.4375 0.0000 ( 31877 PWs)   bands (ev):

    -8.8799  -7.7566  -7.5271  -6.4126  -5.4669  -4.3657  -2.6983  -2.3197
    -1.6094  -1.2398  -1.0224  -0.4712   0.0804   0.6081   0.9731   1.9959

          k = 0.1250-0.5000 0.0000 ( 31862 PWs)   bands (ev):

    -8.3522  -8.3522  -7.0034  -7.0034  -4.9494  -4.9494  -2.1989  -2.1989
    -1.7977  -1.7977  -0.5389  -0.5389   0.0744   0.0744   1.4577   1.4577

          k = 0.1875 0.1875 0.0000 ( 31865 PWs)   bands (ev):

   -10.1190  -8.7570  -6.6829  -4.5606  -4.5606  -3.8972  -3.2375  -3.2375
    -1.6028  -1.2470  -1.2470   0.7674   1.4320   1.4320   1.8526   2.1098

          k = 0.1875 0.2500 0.0000 ( 31835 PWs)   bands (ev):

    -9.8704  -8.5102  -6.4388  -5.4061  -4.3351  -4.0625  -3.6559  -3.0017
    -2.0687  -1.3726  -1.0228  -0.0294   0.6679   1.2714   1.6269   2.0555

          k = 0.1875 0.3125 0.0000 ( 31878 PWs)   bands (ev):

    -9.5513  -8.1935  -6.1944  -6.1257  -4.8661  -4.0070  -3.3470  -2.8380
    -2.6976  -1.0793  -0.7825  -0.7639  -0.0320   0.5231   1.7038   2.2318

          k = 0.1875 0.3750 0.0000 ( 31879 PWs)   bands (ev):

    -9.1622  -7.8073  -6.9206  -5.7439  -5.5838  -3.6361  -3.5475  -2.9718
    -2.3276  -1.4779  -0.8777  -0.7373  -0.2432  -0.1501   1.3124   1.7684

          k = 0.1875 0.4375 0.0000 ( 31884 PWs)   bands (ev):

    -8.7037  -7.5819  -7.3524  -6.2394  -5.2943  -4.1948  -3.1972  -2.5379
    -2.1051  -1.8917  -1.4570  -0.8443  -0.2492   0.1338   0.7521   1.1671

          k = 0.1875-0.5000 0.0000 ( 31874 PWs)   bands (ev):

    -8.1767  -8.1767  -6.8294  -6.8294  -4.7775  -4.7775  -2.6951  -2.6951
    -2.0145  -2.0145  -1.3925  -1.3925   0.2172   0.2172   0.6168   0.6168

          k = 0.2500 0.2500 0.0000 ( 31887 PWs)   bands (ev):

    -9.6221  -8.2638  -6.1952  -5.1669  -5.1669  -3.8370  -3.8370  -3.4158
    -1.8375  -1.8375  -1.1458  -0.8422   0.4651   0.8781   0.8781   2.1696

          k = 0.2500 0.3125 0.0000 ( 31922 PWs)   bands (ev):

    -9.3036  -7.9477  -5.9529  -5.8827  -4.8719  -4.6038  -3.5322  -3.1090
    -2.6029  -1.6019  -1.5459  -0.8705  -0.2710   0.1563   1.1218   1.6491

          k = 0.2500 0.3750 0.0000 ( 31859 PWs)   bands (ev):

    -8.9151  -7.5622  -6.6775  -5.5017  -5.3451  -4.4735  -3.3105  -3.1593
    -2.7419  -2.2965  -1.2227  -1.0341  -0.4848  -0.4452   0.9844   1.2500

          k = 0.2500 0.4375 0.0000 ( 31901 PWs)   bands (ev):

    -8.4575  -7.3375  -7.1081  -5.9975  -5.0530  -4.0329  -3.9561  -2.9532
    -2.7200  -2.2867  -1.6482  -1.2810  -0.6231  -0.0460   0.3686   0.9188

          k = 0.2500-0.5000 0.0000 ( 31884 PWs)   bands (ev):

    -7.9313  -7.9313  -6.5861  -6.5861  -4.5374  -4.5374  -3.5244  -3.5244
    -2.2154  -2.2154  -1.7950  -1.7950  -0.1806  -0.1806   0.4235   0.4235

          k = 0.3125 0.3125 0.0000 ( 31923 PWs)   bands (ev):

    -8.9857  -7.6322  -5.6436  -5.6436  -5.5710  -4.3095  -4.3095  -2.8101
    -2.3611  -2.3033  -2.3033  -1.0982  -0.5108   0.4277   0.4277   0.9226

          k = 0.3125 0.3750 0.0000 ( 31919 PWs)   bands (ev):

    -8.5981  -7.2477  -6.3657  -5.2787  -5.1911  -5.0134  -3.9354  -3.0839
    -3.0069  -2.4234  -1.9438  -1.7778  -0.2357  -0.1780   0.2424   0.7346

          k = 0.3125 0.4375 0.0000 ( 31918 PWs)   bands (ev):

    -8.1414  -7.0241  -6.7947  -5.6889  -4.8107  -4.7436  -3.7231  -3.6507
    -3.4926  -2.4122  -1.9989  -1.5545  -0.8132  -0.3726   0.2254   0.9228

          k = 0.3125-0.5000 0.0000 ( 31864 PWs)   bands (ev):

    -7.6164  -7.6164  -6.2743  -6.2743  -4.3006  -4.3006  -4.2296  -4.2296
    -2.9850  -2.9850  -1.5516  -1.5516  -0.8811  -0.8811   0.6549   0.6549

          k = 0.3750 0.3750 0.0000 ( 31936 PWs)   bands (ev):

    -8.2116  -6.8643  -5.9864  -5.9864  -4.8124  -4.6496  -4.6496  -3.7897
    -2.6387  -2.6387  -2.4782  -2.0670  -0.4370   0.1012   0.1012   0.1593

          k = 0.3750 0.4375 0.0000 ( 31936 PWs)   bands (ev):

    -7.7561  -6.6421  -6.4130  -5.5513  -5.2880  -4.4352  -4.3667  -4.2062
    -3.2775  -3.1183  -2.2110  -1.6873  -1.0111  -0.4996   0.4737   0.5226

          k = 0.3750-0.5000 0.0000 ( 31974 PWs)   bands (ev):

    -7.2326  -7.2326  -5.8958  -5.8958  -5.0143  -5.0143  -3.8559  -3.8559
    -3.6936  -3.6936  -1.7549  -1.7549  -1.0117  -1.0117   0.7256   0.7256

          k = 0.4375 0.4375 0.0000 ( 31954 PWs)   bands (ev):

    -7.3022  -6.1927  -6.1927  -5.9648  -5.0823  -4.8545  -4.8545  -3.9245
    -3.7606  -2.8409  -2.8409  -1.8219  -1.0781  -0.0961  -0.0961   0.6598

          k = 0.4375-0.5000 0.0000 ( 31974 PWs)   bands (ev):

    -6.7806  -6.7806  -5.6880  -5.6880  -5.4257  -5.4257  -4.3421  -4.3421
    -3.4131  -3.4131  -2.3452  -2.3452  -0.6322  -0.6322   0.3426   0.3426

          k =-0.5000-0.5000 0.0000 ( 32032 PWs)   bands (ev):

    -6.2616  -6.2616  -6.2616  -6.2616  -4.9230  -4.9230  -4.9230  -4.9230
    -2.9084  -2.9084  -2.9084  -2.9084  -0.1621  -0.1621  -0.1621  -0.1621

     the Fermi energy is    -0.1377 ev

!    total energy              =     -99.58918901 Ry
     Harris-Foulkes estimate   =     -99.58918902 Ry
     estimated scf accuracy    <          8.1E-09 Ry

     The total energy is the sum of the following terms:

     one-electron contribution =    -391.12361301 Ry
     hartree contribution      =     200.39300678 Ry
     xc contribution           =     -79.78631471 Ry
     ewald contribution        =     170.92751850 Ry
     smearing contrib. (-TS)   =       0.00021343 Ry

     convergence has been achieved in   9 iterations

     Forces acting on atoms (Ry/au):


     negative rho (up, down):  4.227E-06 0.000E+00
     atom    1 type  1   force =     0.00000000    0.00000000    0.00032066
     atom    2 type  1   force =     0.00000000    0.00000000    0.00032065
     atom    3 type  1   force =     0.00000000    0.00000000   -0.00035047
     atom    4 type  1   force =     0.00000000    0.00000000   -0.00035047
     atom    5 type  1   force =     0.00000000    0.00000000    0.00035044
     atom    6 type  1   force =     0.00000000    0.00000000    0.00035046
     atom    7 type  1   force =     0.00000000    0.00000000   -0.00032064
     atom    8 type  1   force =     0.00000000    0.00000000   -0.00032064

     Total force =     0.000950     Total SCF correction =     0.000069


     entering subroutine stress ...


     negative rho (up, down):  4.227E-06 0.000E+00
          total   stress  (Ry/bohr**3)                   (kbar)     P=  -11.02
  -0.00011140   0.00000000   0.00000000        -16.39      0.00      0.00
   0.00000000  -0.00011140   0.00000000          0.00    -16.39      0.00
   0.00000000   0.00000000  -0.00000186          0.00      0.00     -0.27


     bfgs converged in  11 scf cycles and  10 bfgs steps
     (criteria: energy <  1.0E-04, force <  1.0E-03)

     End of BFGS Geometry Optimization

     Final energy   =     -99.5891890085 Ry
Begin final coordinates

ATOMIC_POSITIONS (crystal)
Al       0.000000000   0.000000000  -0.002694038
Al       0.500000000   0.500000000  -0.002694033
Al       0.500000000   0.000000000   0.082706419
Al       0.000000000   0.500000000   0.082706419
Al       0.000000000   0.000000000   0.167293588
Al       0.500000000   0.500000000   0.167293582
Al       0.500000000   0.000000000   0.252694031
Al       0.000000000   0.500000000   0.252694031
End final coordinates



     Writing output data file Al_100_2_4.save

     init_run     :     35.02s CPU     38.47s WALL (       1 calls)
     electrons    :   5021.58s CPU   5632.40s WALL (      11 calls)
     update_pot   :      2.94s CPU      3.09s WALL (      10 calls)
     forces       :     82.20s CPU     82.86s WALL (      11 calls)
     stress       :    173.26s CPU    174.52s WALL (      11 calls)

     Called by init_run:
     wfcinit      :     34.33s CPU     37.75s WALL (       1 calls)
     potinit      :      0.14s CPU      0.16s WALL (       1 calls)

     Called by electrons:
     c_bands      :   4123.39s CPU   4614.82s WALL (     108 calls)
     sum_band     :    594.06s CPU    674.74s WALL (     108 calls)
     v_of_rho     :     12.90s CPU     13.93s WALL (     114 calls)
     newd         :     10.19s CPU     10.37s WALL (     114 calls)
     mix_rho      :    282.69s CPU    320.20s WALL (     108 calls)

     Called by c_bands:
     init_us_2    :     86.60s CPU     91.74s WALL (   10755 calls)
     cegterg      :   4037.19s CPU   4520.67s WALL (    4860 calls)

     Called by *egterg:
     h_psi        :   2552.58s CPU   2907.98s WALL (   13885 calls)
     s_psi        :    355.40s CPU    362.18s WALL (   13885 calls)
     g_psi        :     13.55s CPU     14.93s WALL (    8980 calls)
     cdiaghg      :      6.77s CPU      7.47s WALL (   13165 calls)

     Called by h_psi:
     add_vuspsi   :    357.45s CPU    362.21s WALL (   13885 calls)

     General routines
     calbec       :    556.10s CPU    567.47s WALL (   19735 calls)
     fft          :      9.44s CPU     10.89s WALL (    1771 calls)
     ffts         :    200.90s CPU    227.90s WALL (   35900 calls)
     fftw         :   2090.11s CPU   2483.24s WALL (  438544 calls)
     davcio       :      0.02s CPU      0.63s WALL (      45 calls)

     Parallel routines
     fft_scatter  :     74.53s CPU     98.17s WALL (  476215 calls)

     PWSCF        :     1h28m CPU        1h38m WALL


   This run was terminated on:  21: 2:57  28May2020            

=------------------------------------------------------------------------------=
   JOB DONE.
=------------------------------------------------------------------------------=
