--------------------------------------------------------------------------
[[18211,1],0]: A high-performance Open MPI point-to-point messaging module
was unable to find any relevant network interfaces:

Module: OpenFabrics (openib)
  Host: ubuntu

Another transport will be used instead, although this may result in
lower performance.
--------------------------------------------------------------------------

     Program PWSCF v.5.1 starts on 27May2020 at 19:43:25 

     This program is part of the open-source Quantum ESPRESSO suite
     for quantum simulation of materials; please cite
         "P. Giannozzi et al., J. Phys.:Condens. Matter 21 395502 (2009);
          URL http://www.quantum-espresso.org", 
     in publications or presentations arising from this work. More details at
     http://www.quantum-espresso.org/quote

     Parallel version (MPI), running on     1 processors
     Reading input from Al_100_bulk_11.pw.in

     Current dimensions of program PWSCF are:
     Max number of different atomic species (ntypx) = 10
     Max number of k-points (npk) =  40000
     Max angular momentum in pseudopotentials (lmaxx) =  3

     Subspace diagonalization in iterative solution of the eigenvalue problem:
     a serial algorithm will be used

     Found symmetry operation: I + ( -0.5000 -0.5000  0.0000)
     This is a supercell, fractional translations are disabled

     G-vector sticks info
     --------------------
     sticks:   dense  smooth     PW     G-vecs:    dense   smooth      PW
     Sum         681     553    177                68149    48869    8297



     bravais-lattice index     =            6
     lattice parameter (alat)  =       7.6050  a.u.
     unit-cell volume          =    2199.2149 (a.u.)^3
     number of atoms/cell      =            4
     number of atomic types    =            1
     number of electrons       =        12.00
     number of Kohn-Sham states=           10
     kinetic-energy cutoff     =      30.0000  Ry
     charge density cutoff     =     150.0000  Ry
     convergence threshold     =      1.0E-06
     mixing beta               =       0.3000
     number of iterations used =            8  local-TF  mixing
     Exchange-correlation      =  SLA  PW   PBE  PBE ( 1  4  3  4 0)
     nstep                     =           50


     celldm(1)=   7.605000  celldm(2)=   0.000000  celldm(3)=   5.000000
     celldm(4)=   0.000000  celldm(5)=   0.000000  celldm(6)=   0.000000

     crystal axes: (cart. coord. in units of alat)
               a(1) = (   1.000000   0.000000   0.000000 )  
               a(2) = (   0.000000   1.000000   0.000000 )  
               a(3) = (   0.000000   0.000000   5.000000 )  

     reciprocal axes: (cart. coord. in units 2 pi/alat)
               b(1) = (  1.000000  0.000000  0.000000 )  
               b(2) = (  0.000000  1.000000  0.000000 )  
               b(3) = (  0.000000  0.000000  0.200000 )  


     PseudoPot. # 1 for Al read from file:
     ./Al.pbe-n-van.UPF
     MD5 check sum: b11ded24487aef5bc42d5c7a2e22a7b6
     Pseudo is Ultrasoft + core correction, Zval =  3.0
     Generated by new atomic code, or converted to UPF format
     Using radial grid of  893 points,  2 beta functions with: 
                l(1) =   0
                l(2) =   1
     Q(r) pseudized with  8 coefficients,  rinner =    0.900   0.900   0.900


     atomic species   valence    mass     pseudopotential
        Al             3.00    26.98000     Al( 1.00)

      8 Sym. Ops. (no inversion) found



   Cartesian axes

     site n.     atom                  positions (alat units)
         1           Al  tau(   1) = (   0.0000000   0.0000000   0.0000000  )
         2           Al  tau(   2) = (   0.5000000   0.5000000   0.0000000  )
         3           Al  tau(   3) = (   0.5000000   0.0000000   0.5000000  )
         4           Al  tau(   4) = (   0.0000000   0.5000000   0.5000000  )

     number of k points=    45  Marzari-Vanderbilt smearing, width (Ry)=  0.0250
                       cart. coord. in units 2pi/alat
        k(    1) = (   0.0000000   0.0000000   0.0000000), wk =   0.0078125
        k(    2) = (   0.0000000   0.0625000   0.0000000), wk =   0.0312500
        k(    3) = (   0.0000000   0.1250000   0.0000000), wk =   0.0312500
        k(    4) = (   0.0000000   0.1875000   0.0000000), wk =   0.0312500
        k(    5) = (   0.0000000   0.2500000   0.0000000), wk =   0.0312500
        k(    6) = (   0.0000000   0.3125000   0.0000000), wk =   0.0312500
        k(    7) = (   0.0000000   0.3750000   0.0000000), wk =   0.0312500
        k(    8) = (   0.0000000   0.4375000   0.0000000), wk =   0.0312500
        k(    9) = (   0.0000000  -0.5000000   0.0000000), wk =   0.0156250
        k(   10) = (   0.0625000   0.0625000   0.0000000), wk =   0.0312500
        k(   11) = (   0.0625000   0.1250000   0.0000000), wk =   0.0625000
        k(   12) = (   0.0625000   0.1875000   0.0000000), wk =   0.0625000
        k(   13) = (   0.0625000   0.2500000   0.0000000), wk =   0.0625000
        k(   14) = (   0.0625000   0.3125000   0.0000000), wk =   0.0625000
        k(   15) = (   0.0625000   0.3750000   0.0000000), wk =   0.0625000
        k(   16) = (   0.0625000   0.4375000   0.0000000), wk =   0.0625000
        k(   17) = (   0.0625000  -0.5000000   0.0000000), wk =   0.0312500
        k(   18) = (   0.1250000   0.1250000   0.0000000), wk =   0.0312500
        k(   19) = (   0.1250000   0.1875000   0.0000000), wk =   0.0625000
        k(   20) = (   0.1250000   0.2500000   0.0000000), wk =   0.0625000
        k(   21) = (   0.1250000   0.3125000   0.0000000), wk =   0.0625000
        k(   22) = (   0.1250000   0.3750000   0.0000000), wk =   0.0625000
        k(   23) = (   0.1250000   0.4375000   0.0000000), wk =   0.0625000
        k(   24) = (   0.1250000  -0.5000000   0.0000000), wk =   0.0312500
        k(   25) = (   0.1875000   0.1875000   0.0000000), wk =   0.0312500
        k(   26) = (   0.1875000   0.2500000   0.0000000), wk =   0.0625000
        k(   27) = (   0.1875000   0.3125000   0.0000000), wk =   0.0625000
        k(   28) = (   0.1875000   0.3750000   0.0000000), wk =   0.0625000
        k(   29) = (   0.1875000   0.4375000   0.0000000), wk =   0.0625000
        k(   30) = (   0.1875000  -0.5000000   0.0000000), wk =   0.0312500
        k(   31) = (   0.2500000   0.2500000   0.0000000), wk =   0.0312500
        k(   32) = (   0.2500000   0.3125000   0.0000000), wk =   0.0625000
        k(   33) = (   0.2500000   0.3750000   0.0000000), wk =   0.0625000
        k(   34) = (   0.2500000   0.4375000   0.0000000), wk =   0.0625000
        k(   35) = (   0.2500000  -0.5000000   0.0000000), wk =   0.0312500
        k(   36) = (   0.3125000   0.3125000   0.0000000), wk =   0.0312500
        k(   37) = (   0.3125000   0.3750000   0.0000000), wk =   0.0625000
        k(   38) = (   0.3125000   0.4375000   0.0000000), wk =   0.0625000
        k(   39) = (   0.3125000  -0.5000000   0.0000000), wk =   0.0312500
        k(   40) = (   0.3750000   0.3750000   0.0000000), wk =   0.0312500
        k(   41) = (   0.3750000   0.4375000   0.0000000), wk =   0.0625000
        k(   42) = (   0.3750000  -0.5000000   0.0000000), wk =   0.0312500
        k(   43) = (   0.4375000   0.4375000   0.0000000), wk =   0.0312500
        k(   44) = (   0.4375000  -0.5000000   0.0000000), wk =   0.0312500
        k(   45) = (  -0.5000000  -0.5000000   0.0000000), wk =   0.0078125

     Dense  grid:    68149 G-vectors     FFT dimensions: (  30,  30, 150)

     Smooth grid:    48869 G-vectors     FFT dimensions: (  27,  27, 135)

     Largest allocated arrays     est. size (Mb)     dimensions
        Kohn-Sham Wavefunctions         0.94 Mb     (    6140,   10)
        NL pseudopotentials             1.50 Mb     (    6140,   16)
        Each V/rho on FFT grid          2.06 Mb     (  135000)
        Each G-vector array             0.52 Mb     (   68149)
        G-vector shells                 0.01 Mb     (    1894)
     Largest temporary arrays     est. size (Mb)     dimensions
        Auxiliary wavefunctions         3.75 Mb     (    6140,   40)
        Each subspace H/S matrix        0.02 Mb     (      40,   40)
        Each <psi_i|beta_j> matrix      0.00 Mb     (      16,   10)
        Arrays for rho mixing          16.48 Mb     (  135000,    8)

     Initial potential from superposition of free atoms

     starting charge   11.99014, renormalised to   12.00000

     negative rho (up, down):  3.783E-05 0.000E+00
     Starting wfc are   16 randomized atomic wfcs

     total cpu time spent up to now is        5.6 secs

     per-process dynamical memory:    76.6 Mb

     Self-consistent Calculation

     iteration #  1     ecut=    30.00 Ry     beta=0.30
     Davidson diagonalization with overlap
     ethr =  1.00E-02,  avg # of iterations =  3.0

     negative rho (up, down):  4.304E-08 0.000E+00

     total cpu time spent up to now is       18.3 secs

     total energy              =     -49.73864835 Ry
     Harris-Foulkes estimate   =     -49.75794143 Ry
     estimated scf accuracy    <       0.18536084 Ry

     iteration #  2     ecut=    30.00 Ry     beta=0.30
     Davidson diagonalization with overlap
     ethr =  1.54E-03,  avg # of iterations =  1.0

     total cpu time spent up to now is       25.8 secs

     total energy              =     -49.68532758 Ry
     Harris-Foulkes estimate   =     -49.74166467 Ry
     estimated scf accuracy    <       0.12686462 Ry

     iteration #  3     ecut=    30.00 Ry     beta=0.30
     Davidson diagonalization with overlap
     ethr =  1.06E-03,  avg # of iterations =  2.0

     total cpu time spent up to now is       34.9 secs

     total energy              =     -49.71025263 Ry
     Harris-Foulkes estimate   =     -49.71395760 Ry
     estimated scf accuracy    <       0.01250735 Ry

     iteration #  4     ecut=    30.00 Ry     beta=0.30
     Davidson diagonalization with overlap
     ethr =  1.04E-04,  avg # of iterations =  2.8

     total cpu time spent up to now is       44.2 secs

     total energy              =     -49.71045873 Ry
     Harris-Foulkes estimate   =     -49.71204494 Ry
     estimated scf accuracy    <       0.00562063 Ry

     iteration #  5     ecut=    30.00 Ry     beta=0.30
     Davidson diagonalization with overlap
     ethr =  4.68E-05,  avg # of iterations =  1.2

     total cpu time spent up to now is       51.8 secs

     total energy              =     -49.71056725 Ry
     Harris-Foulkes estimate   =     -49.71077589 Ry
     estimated scf accuracy    <       0.00437150 Ry

     iteration #  6     ecut=    30.00 Ry     beta=0.30
     Davidson diagonalization with overlap
     ethr =  3.64E-05,  avg # of iterations =  1.2

     negative rho (up, down):  2.234E-03 0.000E+00

     total cpu time spent up to now is       60.2 secs

     total energy              =     -49.70821862 Ry
     Harris-Foulkes estimate   =     -49.71061963 Ry
     estimated scf accuracy    <       0.00485027 Ry

     iteration #  7     ecut=    30.00 Ry     beta=0.30
     Davidson diagonalization with overlap
     ethr =  3.64E-05,  avg # of iterations =  2.2

     negative rho (up, down):  1.059E-02 0.000E+00

     total cpu time spent up to now is       69.4 secs

     total energy              =     -49.71059952 Ry
     Harris-Foulkes estimate   =     -49.71070893 Ry
     estimated scf accuracy    <       0.00397791 Ry

     iteration #  8     ecut=    30.00 Ry     beta=0.30
     Davidson diagonalization with overlap
     ethr =  3.31E-05,  avg # of iterations =  1.2

     negative rho (up, down):  3.812E-03 0.000E+00

     total cpu time spent up to now is       77.2 secs

     total energy              =     -49.70859804 Ry
     Harris-Foulkes estimate   =     -49.71062882 Ry
     estimated scf accuracy    <       0.00358366 Ry

     iteration #  9     ecut=    30.00 Ry     beta=0.30
     Davidson diagonalization with overlap
     ethr =  2.99E-05,  avg # of iterations =  2.0

     negative rho (up, down):  3.243E-03 0.000E+00

     total cpu time spent up to now is       86.5 secs

     total energy              =     -49.70988982 Ry
     Harris-Foulkes estimate   =     -49.71021278 Ry
     estimated scf accuracy    <       0.00151867 Ry

     iteration # 10     ecut=    30.00 Ry     beta=0.30
     Davidson diagonalization with overlap
     ethr =  1.27E-05,  avg # of iterations =  1.0

     negative rho (up, down):  3.318E-04 0.000E+00

     total cpu time spent up to now is       95.0 secs

     total energy              =     -49.70970432 Ry
     Harris-Foulkes estimate   =     -49.70994923 Ry
     estimated scf accuracy    <       0.00047690 Ry

     iteration # 11     ecut=    30.00 Ry     beta=0.30
     Davidson diagonalization with overlap
     ethr =  3.97E-06,  avg # of iterations =  2.3

     negative rho (up, down):  3.687E-04 0.000E+00

     total cpu time spent up to now is      105.8 secs

     total energy              =     -49.70982665 Ry
     Harris-Foulkes estimate   =     -49.70983176 Ry
     estimated scf accuracy    <       0.00002134 Ry

     iteration # 12     ecut=    30.00 Ry     beta=0.30
     Davidson diagonalization with overlap
     ethr =  1.78E-07,  avg # of iterations =  1.1

     negative rho (up, down):  3.990E-05 0.000E+00

     total cpu time spent up to now is      115.0 secs

     total energy              =     -49.70982620 Ry
     Harris-Foulkes estimate   =     -49.70982802 Ry
     estimated scf accuracy    <       0.00000624 Ry

     iteration # 13     ecut=    30.00 Ry     beta=0.30
     Davidson diagonalization with overlap
     ethr =  5.20E-08,  avg # of iterations =  1.0

     negative rho (up, down):  4.412E-06 0.000E+00

     total cpu time spent up to now is      125.5 secs

     total energy              =     -49.70982546 Ry
     Harris-Foulkes estimate   =     -49.70982637 Ry
     estimated scf accuracy    <       0.00000326 Ry

     iteration # 14     ecut=    30.00 Ry     beta=0.30
     Davidson diagonalization with overlap
     ethr =  2.72E-08,  avg # of iterations =  2.0

     total cpu time spent up to now is      134.3 secs

     End of self-consistent calculation

          k = 0.0000 0.0000 0.0000 (  6123 PWs)   bands (ev):

   -11.5327  -7.4337  -3.3667  -3.3667  -3.3601  -1.8582  -1.8582   0.4724
     0.4724   0.8631

          k = 0.0000 0.0625 0.0000 (  6131 PWs)   bands (ev):

   -11.4972  -7.3986  -3.9012  -3.3341  -3.3266  -1.8246  -1.2640  -0.0168
     0.5044   0.8968

          k = 0.0000 0.1250 0.0000 (  6135 PWs)   bands (ev):

   -11.3906  -7.2932  -4.7830  -3.2356  -3.2265  -1.7244  -0.8438  -0.2046
     0.6007   0.9968

          k = 0.0000 0.1875 0.0000 (  6133 PWs)   bands (ev):

   -11.2131  -7.1178  -5.6699  -3.0718  -3.0602  -1.7199  -1.5255   0.7613
     0.9760   1.1593

          k = 0.0000 0.2500 0.0000 (  6115 PWs)   bands (ev):

   -10.9651  -6.8727  -6.5125  -2.8426  -2.8277  -2.5122  -1.3093   0.9859
     1.0819   1.3487

          k = 0.0000 0.3125 0.0000 (  6117 PWs)   bands (ev):

   -10.6467  -7.2987  -6.5586  -3.2743  -2.5478  -2.5300  -1.0085   0.4884
     0.5961   1.2755

          k = 0.0000 0.3750 0.0000 (  6090 PWs)   bands (ev):

   -10.2584  -8.0226  -6.1757  -3.9802  -2.1871  -2.1676  -0.6425  -0.1263
    -0.0912   1.6284

          k = 0.0000 0.4375 0.0000 (  6100 PWs)   bands (ev):

    -9.8011  -8.6822  -5.7253  -4.6260  -1.7614  -1.7420  -0.7147  -0.7134
    -0.2160   0.7932

          k = 0.0000-0.5000 0.0000 (  6086 PWs)   bands (ev):

    -9.2754  -9.2754  -5.2082  -5.2082  -1.2701  -1.2701  -1.2562  -1.2562
     0.2666   0.2666

          k = 0.0625 0.0625 0.0000 (  6129 PWs)   bands (ev):

   -11.4617  -7.3634  -3.8681  -3.8681  -3.2932  -1.2310  -1.2310   0.0133
     0.0133   0.9297

          k = 0.0625 0.1250 0.0000 (  6136 PWs)   bands (ev):

   -11.3551  -7.2581  -4.7492  -3.7687  -3.1932  -1.1366  -0.8087  -0.1751
     0.1053   1.0260

          k = 0.0625 0.1875 0.0000 (  6140 PWs)   bands (ev):

   -11.1777  -7.0828  -5.6360  -3.6028  -3.0272  -1.6669  -0.9569   0.2402
     1.0119   1.1600

          k = 0.0625 0.2500 0.0000 (  6125 PWs)   bands (ev):

   -10.9297  -6.8379  -6.4784  -3.3712  -2.7951  -2.4759  -0.7257   0.3985
     0.8043   1.4003

          k = 0.0625 0.3125 0.0000 (  6103 PWs)   bands (ev):

   -10.6113  -7.2642  -6.5238  -3.2500  -3.0607  -2.4977  -0.4276   0.0808
     0.3458   1.0988

          k = 0.0625 0.3750 0.0000 (  6091 PWs)   bands (ev):

   -10.2232  -7.9880  -6.1411  -3.9474  -2.7047  -2.1360  -0.6002  -0.1337
    -0.0668   1.2944

          k = 0.0625 0.4375 0.0000 (  6087 PWs)   bands (ev):

    -9.7660  -8.6474  -5.6909  -4.5923  -2.2751  -1.7122  -1.2219  -0.6960
     0.3545   1.3430

          k = 0.0625-0.5000 0.0000 (  6102 PWs)   bands (ev):

    -9.2404  -9.2404  -5.1742  -5.1742  -1.7806  -1.7806  -1.2296  -1.2296
     0.8302   0.8302

          k = 0.1250 0.1250 0.0000 (  6133 PWs)   bands (ev):

   -11.2486  -7.1529  -4.6483  -4.6483  -3.0937  -0.7277  -0.7277  -0.0683
    -0.0683   1.0901

          k = 0.1250 0.1875 0.0000 (  6118 PWs)   bands (ev):

   -11.0713  -6.9778  -5.5338  -4.4803  -2.9280  -1.5689  -0.5779   0.0954
     0.7405   1.1104

          k = 0.1250 0.2500 0.0000 (  6118 PWs)   bands (ev):

   -10.8235  -6.7332  -6.3757  -4.2455  -2.6969  -2.3777  -0.3855  -0.0228
     0.3247   1.6116

          k = 0.1250 0.3125 0.0000 (  6109 PWs)   bands (ev):

   -10.5055  -7.1608  -6.4196  -3.9458  -3.1357  -2.4012  -0.7626  -0.2001
     0.6176   1.0224

          k = 0.1250 0.3750 0.0000 (  6081 PWs)   bands (ev):

   -10.1176  -7.8840  -6.0374  -3.8577  -3.5599  -2.0423  -1.4485  -0.2454
     0.7627   0.9720

          k = 0.1250 0.4375 0.0000 (  6083 PWs)   bands (ev):

    -9.6608  -8.5430  -5.5879  -4.4922  -3.1358  -2.0743  -1.6241  -0.6581
     0.9855   1.3838

          k = 0.1250-0.5000 0.0000 (  6074 PWs)   bands (ev):

    -9.1355  -9.1355  -5.0720  -5.0720  -2.6372  -2.6372  -1.1543  -1.1543
     1.4134   1.4135

          k = 0.1875 0.1875 0.0000 (  6117 PWs)   bands (ev):

   -10.8943  -6.8031  -5.3642  -5.3642  -2.7635  -1.4123  -1.4123  -0.0695
     1.2725   1.2725

          k = 0.1875 0.2500 0.0000 (  6108 PWs)   bands (ev):

   -10.6468  -6.5590  -6.2047  -5.1271  -2.5341  -2.2164  -1.2003  -0.8666
     1.4980   1.8156

          k = 0.1875 0.3125 0.0000 (  6091 PWs)   bands (ev):

   -10.3291  -6.9887  -6.2460  -4.8233  -2.9722  -2.2417  -1.6152  -0.9470
     1.1375   1.7854

          k = 0.1875 0.3750 0.0000 (  6080 PWs)   bands (ev):

    -9.9418  -7.7111  -5.8649  -4.4556  -3.6703  -2.3066  -1.8893  -0.7095
     0.5858   1.7452

          k = 0.1875 0.4375 0.0000 (  6078 PWs)   bands (ev):

    -9.4855  -8.3692  -5.4168  -4.3364  -3.9943  -2.9368  -1.4855  -0.7080
     0.3917   1.1583

          k = 0.1875-0.5000 0.0000 (  6098 PWs)   bands (ev):

    -8.9610  -8.9610  -4.9035  -4.9035  -3.5037  -3.5037  -1.0556  -1.0556
     0.6708   0.6708

          k = 0.2500 0.2500 0.0000 (  6089 PWs)   bands (ev):

   -10.3996  -6.3156  -5.9658  -5.9658  -2.3081  -1.9939  -1.9939  -1.6733
     2.0605   2.0605

          k = 0.2500 0.3125 0.0000 (  6094 PWs)   bands (ev):

   -10.0826  -6.7481  -6.0039  -5.6594  -2.7438  -2.4282  -2.0225  -1.7154
     1.3502   1.6382

          k = 0.2500 0.3750 0.0000 (  6088 PWs)   bands (ev):

    -9.6960  -7.4692  -5.6243  -5.2862  -3.4402  -3.1243  -1.6850  -1.3974
     0.7158   0.9909

          k = 0.2500 0.4375 0.0000 (  6088 PWs)   bands (ev):

    -9.2405  -8.1261  -5.1790  -4.8504  -4.0744  -3.7580  -1.3216  -1.0990
     0.2245   0.4414

          k = 0.2500-0.5000 0.0000 (  6098 PWs)   bands (ev):

    -8.7169  -8.7169  -4.6808  -4.6808  -4.3148  -4.3148  -1.0398  -1.0398
     0.0991   0.0991

          k = 0.3125 0.3125 0.0000 (  6098 PWs)   bands (ev):

    -9.7663  -6.4396  -6.4396  -5.6936  -3.1876  -2.4537  -2.4537  -1.7516
     0.9333   1.6364

          k = 0.3125 0.3750 0.0000 (  6092 PWs)   bands (ev):

    -9.3806  -7.1589  -6.0637  -5.3173  -3.8869  -3.1437  -2.1082  -1.4549
     0.3225   0.9764

          k = 0.3125 0.4375 0.0000 (  6088 PWs)   bands (ev):

    -8.9261  -7.8143  -5.6215  -4.8884  -4.5095  -3.7768  -1.7235  -1.2391
    -0.0833   0.4012

          k = 0.3125-0.5000 0.0000 (  6082 PWs)   bands (ev):

    -8.4038  -8.4038  -5.1175  -5.1175  -4.3450  -4.3450  -1.3608  -1.3608
    -0.0254  -0.0254

          k = 0.3750 0.3750 0.0000 (  6086 PWs)   bands (ev):

    -8.9960  -6.7807  -6.7807  -4.9578  -4.5745  -2.7855  -2.7855  -1.3056
    -0.1450   1.3204

          k = 0.3750 0.4375 0.0000 (  6079 PWs)   bands (ev):

    -8.5429  -7.4341  -6.3353  -5.2519  -4.4806  -3.4120  -2.3723  -1.4919
    -0.1521   0.7208

          k = 0.3750-0.5000 0.0000 (  6084 PWs)   bands (ev):

    -8.0219  -8.0219  -5.8239  -5.8239  -3.9797  -3.9797  -1.9206  -1.9206
     0.2090   0.2090

          k = 0.4375 0.4375 0.0000 (  6100 PWs)   bands (ev):

    -8.0913  -6.9864  -6.9864  -5.8917  -4.0475  -2.9859  -2.9859  -1.9864
     0.1444   1.1277

          k = 0.4375-0.5000 0.0000 (  6110 PWs)   bands (ev):

    -7.5722  -7.5722  -6.4717  -6.4717  -3.5469  -3.5469  -2.5049  -2.5049
     0.5915   0.5915

          k =-0.5000-0.5000 0.0000 (  6124 PWs)   bands (ev):

    -7.0550  -7.0550  -7.0550  -7.0550  -3.0530  -3.0530  -3.0530  -3.0530
     1.0628   1.0628

     the Fermi energy is    -1.8617 ev

!    total energy              =     -49.70982612 Ry
     Harris-Foulkes estimate   =     -49.70982607 Ry
     estimated scf accuracy    <          8.3E-09 Ry

     The total energy is the sum of the following terms:

     one-electron contribution =    -115.29995709 Ry
     hartree contribution      =      59.30006296 Ry
     xc contribution           =     -39.69521096 Ry
     ewald contribution        =      45.98515087 Ry
     smearing contrib. (-TS)   =       0.00012810 Ry

     convergence has been achieved in  14 iterations

     Forces acting on atoms (Ry/au):

     atom    1 type  1   force =     0.00000000    0.00000000   -0.00890496
     atom    2 type  1   force =     0.00000000    0.00000000   -0.00890501
     atom    3 type  1   force =     0.00000000    0.00000000    0.00890499
     atom    4 type  1   force =     0.00000000    0.00000000    0.00890499

     Total force =     0.017810     Total SCF correction =     0.000016


     entering subroutine stress ...

          total   stress  (Ry/bohr**3)                   (kbar)     P=  -11.09
  -0.00012433   0.00000000   0.00000000        -18.29      0.00      0.00
   0.00000000  -0.00012433   0.00000000          0.00    -18.29      0.00
   0.00000000   0.00000000   0.00002257          0.00      0.00      3.32


     BFGS Geometry Optimization

     number of scf cycles    =   1
     number of bfgs steps    =   0

     energy   new            =     -49.7098261246 Ry

     new trust radius        =       0.0089050094 bohr
     new conv_thr            =       0.0000010000 Ry


ATOMIC_POSITIONS (crystal)
Al       0.000000000   0.000000000  -0.000234187
Al       0.500000000   0.500000000  -0.000234188
Al       0.500000000   0.000000000   0.100234188
Al       0.000000000   0.500000000   0.100234188



     Writing output data file Al_100_1_4.save
     NEW-OLD atomic charge density approx. for the potential

     negative rho (up, down):  4.879E-07 0.000E+00

     total cpu time spent up to now is      138.4 secs

     per-process dynamical memory:    86.7 Mb

     Self-consistent Calculation

     iteration #  1     ecut=    30.00 Ry     beta=0.30
     Davidson diagonalization with overlap
     ethr =  1.00E-06,  avg # of iterations =  3.0

     Threshold (ethr) on eigenvalues was too large:
     Diagonalizing with lowered threshold

     Davidson diagonalization with overlap
     ethr =  9.50E-08,  avg # of iterations =  1.1

     negative rho (up, down):  2.007E-07 0.000E+00

     total cpu time spent up to now is      160.5 secs

     total energy              =     -49.71012623 Ry
     Harris-Foulkes estimate   =     -49.71012765 Ry
     estimated scf accuracy    <       0.00001158 Ry

     iteration #  2     ecut=    30.00 Ry     beta=0.30
     Davidson diagonalization with overlap
     ethr =  9.65E-08,  avg # of iterations =  1.0

     negative rho (up, down):  1.143E-06 0.000E+00

     total cpu time spent up to now is      170.1 secs

     total energy              =     -49.71012323 Ry
     Harris-Foulkes estimate   =     -49.71012636 Ry
     estimated scf accuracy    <       0.00000689 Ry

     iteration #  3     ecut=    30.00 Ry     beta=0.30
     Davidson diagonalization with overlap
     ethr =  5.75E-08,  avg # of iterations =  2.0

     total cpu time spent up to now is      179.7 secs

     End of self-consistent calculation

          k = 0.0000 0.0000 0.0000 (  6123 PWs)   bands (ev):

   -11.5102  -7.4408  -3.3682  -3.3416  -3.3416  -1.8374  -1.8374   0.4633
     0.4633   0.8535

          k = 0.0000 0.0625 0.0000 (  6131 PWs)   bands (ev):

   -11.4747  -7.4056  -3.8771  -3.3346  -3.3090  -1.8038  -1.2422  -0.0241
     0.4954   0.8872

          k = 0.0000 0.1250 0.0000 (  6135 PWs)   bands (ev):

   -11.3681  -7.3002  -4.7595  -3.2345  -3.2105  -1.7041  -0.8498  -0.1824
     0.5916   0.9874

          k = 0.0000 0.1875 0.0000 (  6133 PWs)   bands (ev):

   -11.1906  -7.1248  -5.6467  -3.0682  -3.0467  -1.7264  -1.5043   0.7522
     0.9979   1.1504

          k = 0.0000 0.2500 0.0000 (  6115 PWs)   bands (ev):

   -10.9425  -6.8798  -6.4895  -2.8356  -2.8174  -2.5193  -1.2875   0.9768
     1.0789   1.3743

          k = 0.0000 0.3125 0.0000 (  6117 PWs)   bands (ev):

   -10.6241  -7.2758  -6.5656  -3.2812  -2.5378  -2.5226  -0.9867   0.4836
     0.6216   1.2663

          k = 0.0000 0.3750 0.0000 (  6090 PWs)   bands (ev):

   -10.2358  -7.9998  -6.1827  -3.9870  -2.1752  -2.1619  -0.6206  -0.1323
    -0.0657   1.6192

          k = 0.0000 0.4375 0.0000 (  6100 PWs)   bands (ev):

    -9.7785  -8.6595  -5.7322  -4.6329  -1.7494  -1.7361  -0.7213  -0.6879
    -0.1939   0.8154

          k = 0.0000-0.5000 0.0000 (  6086 PWs)   bands (ev):

    -9.2527  -9.2527  -5.2151  -5.2151  -1.2633  -1.2633  -1.2447  -1.2447
     0.2888   0.2888

          k = 0.0625 0.0625 0.0000 (  6129 PWs)   bands (ev):

   -11.4391  -7.3705  -3.8439  -3.8439  -3.3013  -1.2094  -1.2094   0.0061
     0.0061   0.9202

          k = 0.0625 0.1250 0.0000 (  6136 PWs)   bands (ev):

   -11.3326  -7.2651  -4.7256  -3.7445  -3.2012  -1.1167  -0.8132  -0.1540
     0.0993   1.0170

          k = 0.0625 0.1875 0.0000 (  6140 PWs)   bands (ev):

   -11.1551  -7.0898  -5.6127  -3.5787  -3.0351  -1.6738  -0.9343   0.2331
     1.0343   1.1542

          k = 0.0625 0.2500 0.0000 (  6125 PWs)   bands (ev):

   -10.9071  -6.8449  -6.4553  -3.3472  -2.8030  -2.4824  -0.7032   0.3926
     0.8278   1.3931

          k = 0.0625 0.3125 0.0000 (  6103 PWs)   bands (ev):

   -10.5888  -7.2413  -6.5308  -3.2563  -3.0369  -2.5055  -0.4051   0.1056
     0.3415   1.0886

          k = 0.0625 0.3750 0.0000 (  6091 PWs)   bands (ev):

   -10.2006  -7.9652  -6.1481  -3.9543  -2.6802  -2.1436  -0.5754  -0.1393
    -0.0442   1.2846

          k = 0.0625 0.4375 0.0000 (  6087 PWs)   bands (ev):

    -9.7434  -8.6247  -5.6978  -4.5992  -2.2505  -1.7195  -1.1972  -0.7024
     0.3773   1.3653

          k = 0.0625-0.5000 0.0000 (  6102 PWs)   bands (ev):

    -9.2178  -9.2178  -5.1811  -5.1811  -1.7559  -1.7559  -1.2366  -1.2366
     0.8531   0.8531

          k = 0.1250 0.1250 0.0000 (  6133 PWs)   bands (ev):

   -11.2261  -7.1599  -4.6247  -4.6247  -3.1016  -0.7346  -0.7346  -0.0454
    -0.0454   1.0844

          k = 0.1250 0.1875 0.0000 (  6118 PWs)   bands (ev):

   -11.0488  -6.9848  -5.5106  -4.4568  -2.9359  -1.5755  -0.5844   0.1182
     0.7626   1.1330

          k = 0.1250 0.2500 0.0000 (  6118 PWs)   bands (ev):

   -10.8010  -6.7402  -6.3527  -4.2220  -2.7047  -2.3841  -0.3914   0.0016
     0.3476   1.6031

          k = 0.1250 0.3125 0.0000 (  6109 PWs)   bands (ev):

   -10.4829  -7.1379  -6.4266  -3.9227  -3.1418  -2.4089  -0.7382  -0.2049
     0.6406   1.0122

          k = 0.1250 0.3750 0.0000 (  6081 PWs)   bands (ev):

   -10.0950  -7.8612  -6.0444  -3.8643  -3.5361  -2.0498  -1.4241  -0.2497
     0.7515   0.9951

          k = 0.1250 0.4375 0.0000 (  6083 PWs)   bands (ev):

    -9.6381  -8.5203  -5.5949  -4.4991  -3.1116  -2.0501  -1.6313  -0.6639
     0.9755   1.4070

          k = 0.1250-0.5000 0.0000 (  6074 PWs)   bands (ev):

    -9.1128  -9.1128  -5.0790  -5.0790  -2.6130  -2.6130  -1.1610  -1.1610
     1.4041   1.4042

          k = 0.1875 0.1875 0.0000 (  6117 PWs)   bands (ev):

   -10.8718  -6.8101  -5.3409  -5.3409  -2.7713  -1.4186  -1.4186  -0.0452
     1.2952   1.2952

          k = 0.1875 0.2500 0.0000 (  6108 PWs)   bands (ev):

   -10.6242  -6.5660  -6.1817  -5.1039  -2.5418  -2.2227  -1.2064  -0.8422
     1.5208   1.8064

          k = 0.1875 0.3125 0.0000 (  6091 PWs)   bands (ev):

   -10.3065  -6.9657  -6.2530  -4.8001  -2.9785  -2.2492  -1.5911  -0.9526
     1.1278   1.8084

          k = 0.1875 0.3750 0.0000 (  6080 PWs)   bands (ev):

    -9.9192  -7.6883  -5.8718  -4.4330  -3.6761  -2.2826  -1.8966  -0.7140
     0.5748   1.7361

          k = 0.1875 0.4375 0.0000 (  6078 PWs)   bands (ev):

    -9.4628  -8.3464  -5.4238  -4.3430  -3.9707  -2.9128  -1.4923  -0.7123
     0.3803   1.1491

          k = 0.1875-0.5000 0.0000 (  6098 PWs)   bands (ev):

    -8.9383  -8.9383  -4.9105  -4.9105  -3.4798  -3.4798  -1.0615  -1.0615
     0.6608   0.6608

          k = 0.2500 0.2500 0.0000 (  6089 PWs)   bands (ev):

   -10.3770  -6.3226  -5.9428  -5.9428  -2.3156  -2.0001  -2.0001  -1.6492
     2.0509   2.0510

          k = 0.2500 0.3125 0.0000 (  6094 PWs)   bands (ev):

   -10.0600  -6.7252  -6.0108  -5.6364  -2.7500  -2.4041  -2.0298  -1.7213
     1.3405   1.6294

          k = 0.2500 0.3750 0.0000 (  6088 PWs)   bands (ev):

    -9.6734  -7.4464  -5.6313  -5.2632  -3.4464  -3.1004  -1.6919  -1.4028
     0.7056   0.9817

          k = 0.2500 0.4375 0.0000 (  6088 PWs)   bands (ev):

    -9.2178  -8.1034  -5.1860  -4.8281  -4.0799  -3.7341  -1.3275  -1.1034
     0.2132   0.4314

          k = 0.2500-0.5000 0.0000 (  6098 PWs)   bands (ev):

    -8.6942  -8.6942  -4.6874  -4.6874  -4.2914  -4.2914  -1.0442  -1.0442
     0.0876   0.0876

          k = 0.3125 0.3125 0.0000 (  6098 PWs)   bands (ev):

    -9.7436  -6.4167  -6.4167  -5.7006  -3.1638  -2.4599  -2.4599  -1.7585
     0.9242   1.6267

          k = 0.3125 0.3750 0.0000 (  6092 PWs)   bands (ev):

    -9.3580  -7.1360  -6.0408  -5.3243  -3.8630  -3.1499  -2.1141  -1.4609
     0.3126   0.9665

          k = 0.3125 0.4375 0.0000 (  6088 PWs)   bands (ev):

    -8.9034  -7.7916  -5.5987  -4.8950  -4.4862  -3.7830  -1.7289  -1.2435
    -0.0948   0.3908

          k = 0.3125-0.5000 0.0000 (  6082 PWs)   bands (ev):

    -8.3810  -8.3810  -5.0954  -5.0954  -4.3504  -4.3504  -1.3652  -1.3652
    -0.0367  -0.0367

          k = 0.3750 0.3750 0.0000 (  6086 PWs)   bands (ev):

    -8.9733  -6.7578  -6.7578  -4.9644  -4.5513  -2.7916  -2.7916  -1.3101
    -0.1564   1.3106

          k = 0.3750 0.4375 0.0000 (  6079 PWs)   bands (ev):

    -8.5201  -7.4113  -6.3124  -5.2299  -4.4858  -3.4182  -2.3782  -1.4963
    -0.1636   0.7108

          k = 0.3750-0.5000 0.0000 (  6084 PWs)   bands (ev):

    -7.9992  -7.9992  -5.8011  -5.8011  -3.9858  -3.9858  -1.9259  -1.9259
     0.1986   0.1986

          k = 0.4375 0.4375 0.0000 (  6100 PWs)   bands (ev):

    -8.0686  -6.9636  -6.9636  -5.8690  -4.0536  -2.9919  -2.9919  -1.9917
     0.1339   1.1178

          k = 0.4375-0.5000 0.0000 (  6110 PWs)   bands (ev):

    -7.5495  -7.5495  -6.4489  -6.4489  -3.5531  -3.5531  -2.5107  -2.5107
     0.5814   0.5814

          k =-0.5000-0.5000 0.0000 (  6124 PWs)   bands (ev):

    -7.0322  -7.0322  -7.0322  -7.0322  -3.0590  -3.0590  -3.0590  -3.0590
     1.0528   1.0528

     the Fermi energy is    -1.8608 ev

!    total energy              =     -49.71012467 Ry
     Harris-Foulkes estimate   =     -49.71012477 Ry
     estimated scf accuracy    <       0.00000016 Ry

     The total energy is the sum of the following terms:

     one-electron contribution =    -115.10253166 Ry
     hartree contribution      =      59.20371464 Ry
     xc contribution           =     -39.69065901 Ry
     ewald contribution        =      45.87920597 Ry
     smearing contrib. (-TS)   =       0.00014540 Ry

     convergence has been achieved in   3 iterations

     Forces acting on atoms (Ry/au):

     atom    1 type  1   force =     0.00000000    0.00000000   -0.00783650
     atom    2 type  1   force =     0.00000000    0.00000000   -0.00783648
     atom    3 type  1   force =     0.00000000    0.00000000    0.00783649
     atom    4 type  1   force =     0.00000000    0.00000000    0.00783649

     Total force =     0.015673     Total SCF correction =     0.000351


     entering subroutine stress ...

          total   stress  (Ry/bohr**3)                   (kbar)     P=  -11.43
  -0.00012610   0.00000000   0.00000000        -18.55      0.00      0.00
   0.00000000  -0.00012610   0.00000000          0.00    -18.55      0.00
   0.00000000   0.00000000   0.00001915          0.00      0.00      2.82


     number of scf cycles    =   2
     number of bfgs steps    =   1

     energy   old            =     -49.7098261246 Ry
     energy   new            =     -49.7101246663 Ry

     CASE: energy  _new < energy  _old


     WARNING: bfgs curvature condition failed, Theta= 0.909
     new trust radius        =       0.0097955104 bohr
     new conv_thr            =       0.0000000299 Ry


ATOMIC_POSITIONS (crystal)
Al       0.000000000   0.000000000  -0.000491794
Al       0.500000000   0.500000000  -0.000491795
Al       0.500000000   0.000000000   0.100491795
Al       0.000000000   0.500000000   0.100491795



     Writing output data file Al_100_1_4.save
     NEW-OLD atomic charge density approx. for the potential

     negative rho (up, down):  5.988E-07 0.000E+00

     total cpu time spent up to now is      184.2 secs

     per-process dynamical memory:    86.7 Mb

     Self-consistent Calculation

     iteration #  1     ecut=    30.00 Ry     beta=0.30
     Davidson diagonalization with overlap
     ethr =  1.00E-06,  avg # of iterations =  3.0

     negative rho (up, down):  3.933E-07 0.000E+00

     total cpu time spent up to now is      199.9 secs

     total energy              =     -49.71041261 Ry
     Harris-Foulkes estimate   =     -49.71041506 Ry
     estimated scf accuracy    <       0.00002002 Ry

     iteration #  2     ecut=    30.00 Ry     beta=0.30
     Davidson diagonalization with overlap
     ethr =  1.67E-07,  avg # of iterations =  1.1

     negative rho (up, down):  3.193E-06 0.000E+00

     total cpu time spent up to now is      212.2 secs

     total energy              =     -49.71040746 Ry
     Harris-Foulkes estimate   =     -49.71041310 Ry
     estimated scf accuracy    <       0.00001218 Ry

     iteration #  3     ecut=    30.00 Ry     beta=0.30
     Davidson diagonalization with overlap
     ethr =  1.01E-07,  avg # of iterations =  2.0

     negative rho (up, down):  1.989E-06 0.000E+00

     total cpu time spent up to now is      226.4 secs

     total energy              =     -49.71041028 Ry
     Harris-Foulkes estimate   =     -49.71041042 Ry
     estimated scf accuracy    <       0.00000043 Ry

     iteration #  4     ecut=    30.00 Ry     beta=0.30
     Davidson diagonalization with overlap
     ethr =  3.58E-09,  avg # of iterations =  2.0

     negative rho (up, down):  8.907E-07 0.000E+00

     total cpu time spent up to now is      238.5 secs

     total energy              =     -49.71041031 Ry
     Harris-Foulkes estimate   =     -49.71041033 Ry
     estimated scf accuracy    <       0.00000008 Ry

     iteration #  5     ecut=    30.00 Ry     beta=0.30
     Davidson diagonalization with overlap
     ethr =  6.35E-10,  avg # of iterations =  2.0

     total cpu time spent up to now is      247.1 secs

     End of self-consistent calculation

          k = 0.0000 0.0000 0.0000 (  6123 PWs)   bands (ev):

   -11.4844  -7.4489  -3.3774  -3.3130  -3.3130  -1.8133  -1.8133   0.4533
     0.4533   0.8421

          k = 0.0000 0.0625 0.0000 (  6131 PWs)   bands (ev):

   -11.4488  -7.4137  -3.8495  -3.3438  -3.2804  -1.7798  -1.2171  -0.0323
     0.4853   0.8759

          k = 0.0000 0.1250 0.0000 (  6135 PWs)   bands (ev):

   -11.3422  -7.3083  -4.7326  -3.2437  -3.1819  -1.6806  -0.8565  -0.1570
     0.5815   0.9762

          k = 0.0000 0.1875 0.0000 (  6133 PWs)   bands (ev):

   -11.1647  -7.1329  -5.6201  -3.0773  -3.0181  -1.7340  -1.4797   0.7420
     1.0229   1.1398

          k = 0.0000 0.2500 0.0000 (  6115 PWs)   bands (ev):

   -10.9166  -6.8878  -6.4631  -2.8446  -2.7888  -2.5274  -1.2622   0.9666
     1.0751   1.4034

          k = 0.0000 0.3125 0.0000 (  6117 PWs)   bands (ev):

   -10.5982  -7.2495  -6.5736  -3.2892  -2.5467  -2.4939  -0.9615   0.4778
     0.6506   1.2561

          k = 0.0000 0.3750 0.0000 (  6090 PWs)   bands (ev):

   -10.2099  -7.9736  -6.1907  -3.9950  -2.1839  -2.1331  -0.5954  -0.1392
    -0.0367   1.6089

          k = 0.0000 0.4375 0.0000 (  6100 PWs)   bands (ev):

    -9.7525  -8.6334  -5.7402  -4.6408  -1.7579  -1.7073  -0.7290  -0.6590
    -0.1685   0.8410

          k = 0.0000-0.5000 0.0000 (  6086 PWs)   bands (ev):

    -9.2267  -9.2267  -5.2231  -5.2231  -1.2715  -1.2715  -1.2159  -1.2159
     0.3145   0.3145

          k = 0.0625 0.0625 0.0000 (  6129 PWs)   bands (ev):

   -11.4133  -7.3785  -3.8164  -3.8164  -3.3105  -1.1844  -1.1844  -0.0020
    -0.0020   0.9090

          k = 0.0625 0.1250 0.0000 (  6136 PWs)   bands (ev):

   -11.3067  -7.2732  -4.6987  -3.7170  -3.2104  -1.0944  -0.8178  -0.1303
     0.0930   1.0061

          k = 0.0625 0.1875 0.0000 (  6140 PWs)   bands (ev):

   -11.1293  -7.0979  -5.5861  -3.5511  -3.0442  -1.6818  -0.9082   0.2250
     1.0600   1.1470

          k = 0.0625 0.2500 0.0000 (  6125 PWs)   bands (ev):

   -10.8812  -6.8530  -6.4289  -3.3199  -2.8120  -2.4899  -0.6773   0.3857
     0.8543   1.3849

          k = 0.0625 0.3125 0.0000 (  6103 PWs)   bands (ev):

   -10.5629  -7.2150  -6.5388  -3.2638  -3.0094  -2.5143  -0.3791   0.1339
     0.3364   1.0772

          k = 0.0625 0.3750 0.0000 (  6091 PWs)   bands (ev):

   -10.1747  -7.9390  -6.1561  -3.9623  -2.6522  -2.1523  -0.5472  -0.1458
    -0.0181   1.2737

          k = 0.0625 0.4375 0.0000 (  6087 PWs)   bands (ev):

    -9.7174  -8.5986  -5.7058  -4.6071  -2.2225  -1.7279  -1.1690  -0.7100
     0.4035   1.3908

          k = 0.0625-0.5000 0.0000 (  6102 PWs)   bands (ev):

    -9.1917  -9.1917  -5.1891  -5.1891  -1.7279  -1.7279  -1.2447  -1.2447
     0.8794   0.8794

          k = 0.1250 0.1250 0.0000 (  6133 PWs)   bands (ev):

   -11.2002  -7.1680  -4.5978  -4.5978  -3.1107  -0.7426  -0.7426  -0.0192
    -0.0192   1.0771

          k = 0.1250 0.1875 0.0000 (  6118 PWs)   bands (ev):

   -11.0229  -6.9929  -5.4840  -4.4299  -2.9450  -1.5831  -0.5919   0.1444
     0.7873   1.1589

          k = 0.1250 0.2500 0.0000 (  6118 PWs)   bands (ev):

   -10.7751  -6.7483  -6.3262  -4.1951  -2.7136  -2.3915  -0.3983   0.0295
     0.3739   1.5935

          k = 0.1250 0.3125 0.0000 (  6109 PWs)   bands (ev):

   -10.4570  -7.1116  -6.4346  -3.8963  -3.1486  -2.4177  -0.7103  -0.2106
     0.6669   1.0009

          k = 0.1250 0.3750 0.0000 (  6081 PWs)   bands (ev):

   -10.0691  -7.8351  -6.0524  -3.8720  -3.5089  -2.0584  -1.3964  -0.2548
     0.7391   1.0216

          k = 0.1250 0.4375 0.0000 (  6083 PWs)   bands (ev):

    -9.6122  -8.4942  -5.6029  -4.5071  -3.0840  -2.0224  -1.6396  -0.6706
     0.9644   1.4336

          k = 0.1250-0.5000 0.0000 (  6074 PWs)   bands (ev):

    -9.0868  -9.0868  -5.0870  -5.0870  -2.5854  -2.5854  -1.1687  -1.1687
     1.3936   1.3937

          k = 0.1875 0.1875 0.0000 (  6117 PWs)   bands (ev):

   -10.8459  -6.8182  -5.3143  -5.3143  -2.7803  -1.4260  -1.4260  -0.0175
     1.3212   1.3212

          k = 0.1875 0.2500 0.0000 (  6108 PWs)   bands (ev):

   -10.5983  -6.5740  -6.1552  -5.0773  -2.5507  -2.2300  -1.2134  -0.8145
     1.5469   1.7962

          k = 0.1875 0.3125 0.0000 (  6091 PWs)   bands (ev):

   -10.2806  -6.9394  -6.2610  -4.7736  -2.9857  -2.2578  -1.5634  -0.9590
     1.1168   1.8346

          k = 0.1875 0.3750 0.0000 (  6080 PWs)   bands (ev):

    -9.8932  -7.6621  -5.8799  -4.4072  -3.6826  -2.2551  -1.9049  -0.7194
     0.5625   1.7259

          k = 0.1875 0.4375 0.0000 (  6078 PWs)   bands (ev):

    -9.4369  -8.3203  -5.4318  -4.3507  -3.9437  -2.8854  -1.5001  -0.7175
     0.3676   1.1387

          k = 0.1875-0.5000 0.0000 (  6098 PWs)   bands (ev):

    -8.9123  -8.9123  -4.9186  -4.9186  -3.4524  -3.4524  -1.0684  -1.0684
     0.6496   0.6496

          k = 0.2500 0.2500 0.0000 (  6089 PWs)   bands (ev):

   -10.3511  -6.3306  -5.9163  -5.9163  -2.3243  -2.0072  -2.0072  -1.6216
     2.0402   2.0402

          k = 0.2500 0.3125 0.0000 (  6094 PWs)   bands (ev):

   -10.0341  -6.6989  -6.0189  -5.6100  -2.7572  -2.3767  -2.0382  -1.7282
     1.3297   1.6195

          k = 0.2500 0.3750 0.0000 (  6088 PWs)   bands (ev):

    -9.6474  -7.4202  -5.6394  -5.2370  -3.4535  -3.0731  -1.6998  -1.4091
     0.6941   0.9714

          k = 0.2500 0.4375 0.0000 (  6088 PWs)   bands (ev):

    -9.1918  -8.0773  -5.1941  -4.8027  -4.0862  -3.7068  -1.3345  -1.1086
     0.2005   0.4202

          k = 0.2500-0.5000 0.0000 (  6098 PWs)   bands (ev):

    -8.6681  -8.6681  -4.6951  -4.6951  -4.2646  -4.2646  -1.0494  -1.0494
     0.0748   0.0748

          k = 0.3125 0.3125 0.0000 (  6098 PWs)   bands (ev):

    -9.7177  -6.3904  -6.3904  -5.7086  -3.1364  -2.4669  -2.4669  -1.7664
     0.9139   1.6158

          k = 0.3125 0.3750 0.0000 (  6092 PWs)   bands (ev):

    -9.3320  -7.1098  -6.0145  -5.3325  -3.8357  -3.1570  -2.1208  -1.4679
     0.3014   0.9553

          k = 0.3125 0.4375 0.0000 (  6088 PWs)   bands (ev):

    -8.8774  -7.7654  -5.5726  -4.9027  -4.4594  -3.7900  -1.7351  -1.2488
    -0.1076   0.3791

          k = 0.3125-0.5000 0.0000 (  6082 PWs)   bands (ev):

    -8.3550  -8.3550  -5.0703  -5.0703  -4.3564  -4.3564  -1.3704  -1.3704
    -0.0495  -0.0495

          k = 0.3750 0.3750 0.0000 (  6086 PWs)   bands (ev):

    -8.9473  -6.7316  -6.7316  -4.9720  -4.5246  -2.7986  -2.7986  -1.3153
    -0.1692   1.2995

          k = 0.3750 0.4375 0.0000 (  6079 PWs)   bands (ev):

    -8.4941  -7.3852  -6.2862  -5.2050  -4.4918  -3.4253  -2.3849  -1.5015
    -0.1764   0.6996

          k = 0.3750-0.5000 0.0000 (  6084 PWs)   bands (ev):

    -7.9731  -7.9731  -5.7751  -5.7751  -3.9928  -3.9928  -1.9321  -1.9321
     0.1867   0.1867

          k = 0.4375 0.4375 0.0000 (  6100 PWs)   bands (ev):

    -8.0425  -6.9374  -6.9374  -5.8430  -4.0606  -2.9989  -2.9989  -1.9979
     0.1220   1.1066

          k = 0.4375-0.5000 0.0000 (  6110 PWs)   bands (ev):

    -7.5233  -7.5233  -6.4228  -6.4228  -3.5602  -3.5602  -2.5174  -2.5174
     0.5701   0.5701

          k =-0.5000-0.5000 0.0000 (  6124 PWs)   bands (ev):

    -7.0061  -7.0061  -7.0061  -7.0061  -3.0660  -3.0660  -3.0660  -3.0660
     1.0417   1.0417

     the Fermi energy is    -1.8597 ev

!    total energy              =     -49.71041032 Ry
     Harris-Foulkes estimate   =     -49.71041032 Ry
     estimated scf accuracy    <       0.00000001 Ry

     The total energy is the sum of the following terms:

     one-electron contribution =    -114.88147946 Ry
     hartree contribution      =      59.09375517 Ry
     xc contribution           =     -39.68553829 Ry
     ewald contribution        =      45.76269809 Ry
     smearing contrib. (-TS)   =       0.00015418 Ry

     convergence has been achieved in   5 iterations

     Forces acting on atoms (Ry/au):

     atom    1 type  1   force =     0.00000000    0.00000000   -0.00672274
     atom    2 type  1   force =     0.00000000    0.00000000   -0.00672272
     atom    3 type  1   force =     0.00000000    0.00000000    0.00672273
     atom    4 type  1   force =     0.00000000    0.00000000    0.00672273

     Total force =     0.013445     Total SCF correction =     0.000095


     entering subroutine stress ...

          total   stress  (Ry/bohr**3)                   (kbar)     P=  -11.80
  -0.00012787   0.00000000   0.00000000        -18.81      0.00      0.00
   0.00000000  -0.00012787   0.00000000          0.00    -18.81      0.00
   0.00000000   0.00000000   0.00001511          0.00      0.00      2.22


     number of scf cycles    =   3
     number of bfgs steps    =   2

     energy   old            =     -49.7101246663 Ry
     energy   new            =     -49.7104103191 Ry

     CASE: energy  _new < energy  _old

     new trust radius        =       0.0146932655 bohr
     new conv_thr            =       0.0000000286 Ry


ATOMIC_POSITIONS (crystal)
Al       0.000000000   0.000000000  -0.000878205
Al       0.500000000   0.500000000  -0.000878205
Al       0.500000000   0.000000000   0.100878205
Al       0.000000000   0.500000000   0.100878205



     Writing output data file Al_100_1_4.save
     NEW-OLD atomic charge density approx. for the potential

     negative rho (up, down):  1.278E-06 0.000E+00

     total cpu time spent up to now is      251.1 secs

     per-process dynamical memory:    86.7 Mb

     Self-consistent Calculation

     iteration #  1     ecut=    30.00 Ry     beta=0.30
     Davidson diagonalization with overlap
     ethr =  1.00E-06,  avg # of iterations =  3.2

     negative rho (up, down):  5.026E-07 0.000E+00

     total cpu time spent up to now is      265.4 secs

     total energy              =     -49.71075937 Ry
     Harris-Foulkes estimate   =     -49.71076291 Ry
     estimated scf accuracy    <       0.00002896 Ry

     iteration #  2     ecut=    30.00 Ry     beta=0.30
     Davidson diagonalization with overlap
     ethr =  2.41E-07,  avg # of iterations =  1.0

     negative rho (up, down):  2.108E-06 0.000E+00

     total cpu time spent up to now is      274.3 secs

     total energy              =     -49.71075200 Ry
     Harris-Foulkes estimate   =     -49.71076008 Ry
     estimated scf accuracy    <       0.00001754 Ry

     iteration #  3     ecut=    30.00 Ry     beta=0.30
     Davidson diagonalization with overlap
     ethr =  1.46E-07,  avg # of iterations =  2.0

     negative rho (up, down):  1.105E-06 0.000E+00

     total cpu time spent up to now is      284.8 secs

     total energy              =     -49.71075620 Ry
     Harris-Foulkes estimate   =     -49.71075632 Ry
     estimated scf accuracy    <       0.00000071 Ry

     iteration #  4     ecut=    30.00 Ry     beta=0.30
     Davidson diagonalization with overlap
     ethr =  5.88E-09,  avg # of iterations =  1.1

     negative rho (up, down):  5.480E-07 0.000E+00

     total cpu time spent up to now is      293.8 secs

     total energy              =     -49.71075612 Ry
     Harris-Foulkes estimate   =     -49.71075624 Ry
     estimated scf accuracy    <       0.00000028 Ry

     iteration #  5     ecut=    30.00 Ry     beta=0.30
     Davidson diagonalization with overlap
     ethr =  2.29E-09,  avg # of iterations =  2.0

     total cpu time spent up to now is      302.3 secs

     End of self-consistent calculation

          k = 0.0000 0.0000 0.0000 (  6123 PWs)   bands (ev):

   -11.4474  -7.4615  -3.3913  -3.2721  -3.2721  -1.7790  -1.7790   0.4376
     0.4376   0.8241

          k = 0.0000 0.0625 0.0000 (  6131 PWs)   bands (ev):

   -11.4119  -7.4263  -3.8101  -3.3577  -3.2395  -1.7457  -1.1815  -0.0452
     0.4696   0.8579

          k = 0.0000 0.1250 0.0000 (  6135 PWs)   bands (ev):

   -11.3053  -7.3209  -4.6941  -3.2576  -3.1409  -1.6476  -0.8669  -0.1208
     0.5658   0.9585

          k = 0.0000 0.1875 0.0000 (  6133 PWs)   bands (ev):

   -11.1278  -7.1455  -5.5820  -3.0910  -2.9771  -1.7463  -1.4442   0.7263
     1.0583   1.1228

          k = 0.0000 0.2500 0.0000 (  6115 PWs)   bands (ev):

   -10.8796  -6.9004  -6.4253  -2.8582  -2.7477  -2.5401  -1.2261   0.9508
     1.0692   1.4450

          k = 0.0000 0.3125 0.0000 (  6117 PWs)   bands (ev):

   -10.5612  -7.2120  -6.5862  -3.3017  -2.5602  -2.4529  -0.9255   0.4690
     0.6922   1.2402

          k = 0.0000 0.3750 0.0000 (  6090 PWs)   bands (ev):

   -10.1728  -7.9362  -6.2032  -4.0074  -2.1971  -2.0920  -0.5593  -0.1498
     0.0048   1.5929

          k = 0.0000 0.4375 0.0000 (  6100 PWs)   bands (ev):

    -9.7154  -8.5961  -5.7527  -4.6532  -1.7708  -1.6661  -0.7407  -0.6176
    -0.1321   0.8774

          k = 0.0000-0.5000 0.0000 (  6086 PWs)   bands (ev):

    -9.1895  -9.1895  -5.2355  -5.2355  -1.2838  -1.2838  -1.1745  -1.1745
     0.3511   0.3511

          k = 0.0625 0.0625 0.0000 (  6129 PWs)   bands (ev):

   -11.3763  -7.3912  -3.7769  -3.7769  -3.3243  -1.1490  -1.1490  -0.0147
    -0.0147   0.8911

          k = 0.0625 0.1250 0.0000 (  6136 PWs)   bands (ev):

   -11.2698  -7.2858  -4.6602  -3.6776  -3.2242  -1.0644  -0.8235  -0.0980
     0.0843   0.9889

          k = 0.0625 0.1875 0.0000 (  6140 PWs)   bands (ev):

   -11.0923  -7.1105  -5.5481  -3.5118  -3.0579  -1.6943  -0.8710   0.2123
     1.0965   1.1339

          k = 0.0625 0.2500 0.0000 (  6125 PWs)   bands (ev):

   -10.8442  -6.8655  -6.3912  -3.2809  -2.8256  -2.5015  -0.6402   0.3749
     0.8918   1.3724

          k = 0.0625 0.3125 0.0000 (  6103 PWs)   bands (ev):

   -10.5258  -7.1774  -6.5513  -3.2757  -2.9699  -2.5278  -0.3421   0.1743
     0.3286   1.0595

          k = 0.0625 0.3750 0.0000 (  6091 PWs)   bands (ev):

   -10.1376  -7.9016  -6.1686  -3.9747  -2.6121  -2.1654  -0.5067  -0.1556
     0.0191   1.2568

          k = 0.0625 0.4375 0.0000 (  6087 PWs)   bands (ev):

    -9.6803  -8.5613  -5.7183  -4.6196  -2.1823  -1.7407  -1.1287  -0.7213
     0.4410   1.4273

          k = 0.0625-0.5000 0.0000 (  6102 PWs)   bands (ev):

    -9.1545  -9.1545  -5.2015  -5.2015  -1.6876  -1.6876  -1.2569  -1.2569
     0.9170   0.9170

          k = 0.1250 0.1250 0.0000 (  6133 PWs)   bands (ev):

   -11.1633  -7.1806  -4.5593  -4.5593  -3.1245  -0.7549  -0.7549   0.0183
     0.0183   1.0642

          k = 0.1250 0.1875 0.0000 (  6118 PWs)   bands (ev):

   -10.9859  -7.0055  -5.4459  -4.3914  -2.9586  -1.5949  -0.6036   0.1818
     0.8218   1.1957

          k = 0.1250 0.2500 0.0000 (  6118 PWs)   bands (ev):

   -10.7381  -6.7608  -6.2885  -4.1568  -2.7271  -2.4030  -0.4091   0.0693
     0.4113   1.5790

          k = 0.1250 0.3125 0.0000 (  6109 PWs)   bands (ev):

   -10.4199  -7.0740  -6.4471  -3.8588  -3.1593  -2.4310  -0.6704  -0.2196
     0.7046   0.9835

          k = 0.1250 0.3750 0.0000 (  6081 PWs)   bands (ev):

   -10.0320  -7.7976  -6.0649  -3.8842  -3.4698  -2.0714  -1.3566  -0.2626
     0.7199   1.0594

          k = 0.1250 0.4375 0.0000 (  6083 PWs)   bands (ev):

    -9.5750  -8.4569  -5.6154  -4.5197  -3.0445  -1.9828  -1.6521  -0.6809
     0.9471   1.4716

          k = 0.1250-0.5000 0.0000 (  6074 PWs)   bands (ev):

    -9.0496  -9.0496  -5.0995  -5.0995  -2.5459  -2.5459  -1.1804  -1.1804
     1.3774   1.3775

          k = 0.1875 0.1875 0.0000 (  6117 PWs)   bands (ev):

   -10.8089  -6.8308  -5.2763  -5.2763  -2.7938  -1.4375  -1.4375   0.0222
     1.3581   1.3581

          k = 0.1875 0.2500 0.0000 (  6108 PWs)   bands (ev):

   -10.5613  -6.5866  -6.1175  -5.0393  -2.5640  -2.2414  -1.2244  -0.7747
     1.5841   1.7806

          k = 0.1875 0.3125 0.0000 (  6091 PWs)   bands (ev):

   -10.2436  -6.9019  -6.2736  -4.7358  -2.9970  -2.2709  -1.5238  -0.9692
     1.1001   1.8721

          k = 0.1875 0.3750 0.0000 (  6080 PWs)   bands (ev):

    -9.8561  -7.6247  -5.8924  -4.3706  -3.6926  -2.2157  -1.9176  -0.7278
     0.5438   1.7103

          k = 0.1875 0.4375 0.0000 (  6078 PWs)   bands (ev):

    -9.3997  -8.2830  -5.4444  -4.3629  -3.9049  -2.8461  -1.5120  -0.7254
     0.3481   1.1226

          k = 0.1875-0.5000 0.0000 (  6098 PWs)   bands (ev):

    -8.8750  -8.8750  -4.9312  -4.9312  -3.4131  -3.4131  -1.0788  -1.0788
     0.6323   0.6323

          k = 0.2500 0.2500 0.0000 (  6089 PWs)   bands (ev):

   -10.3140  -6.3432  -5.8786  -5.8786  -2.3374  -2.0184  -2.0184  -1.5820
     2.0240   2.0240

          k = 0.2500 0.3125 0.0000 (  6094 PWs)   bands (ev):

    -9.9970  -6.6613  -6.0314  -5.5723  -2.7685  -2.3374  -2.0509  -1.7390
     1.3132   1.6040

          k = 0.2500 0.3750 0.0000 (  6088 PWs)   bands (ev):

    -9.6103  -7.3828  -5.6519  -5.1995  -3.4646  -3.0339  -1.7118  -1.4190
     0.6766   0.9554

          k = 0.2500 0.4375 0.0000 (  6088 PWs)   bands (ev):

    -9.1546  -8.0399  -5.2068  -4.7668  -4.0957  -3.6677  -1.3450  -1.1169
     0.1813   0.4030

          k = 0.2500-0.5000 0.0000 (  6098 PWs)   bands (ev):

    -8.6309  -8.6309  -4.7072  -4.7072  -4.2260  -4.2260  -1.0574  -1.0574
     0.0552   0.0552

          k = 0.3125 0.3125 0.0000 (  6098 PWs)   bands (ev):

    -9.6806  -6.3528  -6.3528  -5.7212  -3.0973  -2.4780  -2.4780  -1.7784
     0.8979   1.5992

          k = 0.3125 0.3750 0.0000 (  6092 PWs)   bands (ev):

    -9.2948  -7.0724  -5.9770  -5.3452  -3.7967  -3.1682  -2.1315  -1.4785
     0.2842   0.9385

          k = 0.3125 0.4375 0.0000 (  6088 PWs)   bands (ev):

    -8.8402  -7.7281  -5.5353  -4.9148  -4.4210  -3.8010  -1.7449  -1.2569
    -0.1272   0.3613

          k = 0.3125-0.5000 0.0000 (  6082 PWs)   bands (ev):

    -8.3177  -8.3177  -5.0348  -5.0348  -4.3657  -4.3657  -1.3785  -1.3785
    -0.0690  -0.0690

          k = 0.3750 0.3750 0.0000 (  6086 PWs)   bands (ev):

    -8.9101  -6.6942  -6.6942  -4.9841  -4.4862  -2.8096  -2.8096  -1.3234
    -0.1889   1.2827

          k = 0.3750 0.4375 0.0000 (  6079 PWs)   bands (ev):

    -8.4569  -7.3478  -6.2488  -5.1697  -4.5009  -3.4364  -2.3955  -1.5096
    -0.1960   0.6825

          k = 0.3750-0.5000 0.0000 (  6084 PWs)   bands (ev):

    -7.9358  -7.9358  -5.7379  -5.7379  -4.0038  -4.0038  -1.9419  -1.9419
     0.1689   0.1689

          k = 0.4375 0.4375 0.0000 (  6100 PWs)   bands (ev):

    -8.0052  -6.9001  -6.9001  -5.8059  -4.0716  -3.0099  -3.0099  -2.0076
     0.1041   1.0897

          k = 0.4375-0.5000 0.0000 (  6110 PWs)   bands (ev):

    -7.4860  -7.4860  -6.3854  -6.3854  -3.5713  -3.5713  -2.5280  -2.5280
     0.5529   0.5529

          k =-0.5000-0.5000 0.0000 (  6124 PWs)   bands (ev):

    -6.9687  -6.9687  -6.9687  -6.9687  -3.0769  -3.0769  -3.0769  -3.0769
     1.0247   1.0247

     the Fermi energy is    -1.8589 ev

!    total energy              =     -49.71075615 Ry
     Harris-Foulkes estimate   =     -49.71075616 Ry
     estimated scf accuracy    <          3.5E-09 Ry

     The total energy is the sum of the following terms:

     one-electron contribution =    -114.55334305 Ry
     hartree contribution      =      58.93254979 Ry
     xc contribution           =     -39.67811085 Ry
     ewald contribution        =      45.58800407 Ry
     smearing contrib. (-TS)   =       0.00014389 Ry

     convergence has been achieved in   5 iterations

     Forces acting on atoms (Ry/au):

     atom    1 type  1   force =     0.00000000    0.00000000   -0.00505240
     atom    2 type  1   force =     0.00000000    0.00000000   -0.00505239
     atom    3 type  1   force =     0.00000000    0.00000000    0.00505239
     atom    4 type  1   force =     0.00000000    0.00000000    0.00505239

     Total force =     0.010105     Total SCF correction =     0.000002


     entering subroutine stress ...

          total   stress  (Ry/bohr**3)                   (kbar)     P=  -12.33
  -0.00013046   0.00000000   0.00000000        -19.19      0.00      0.00
   0.00000000  -0.00013046   0.00000000          0.00    -19.19      0.00
   0.00000000   0.00000000   0.00000947          0.00      0.00      1.39


     number of scf cycles    =   4
     number of bfgs steps    =   3

     energy   old            =     -49.7104103191 Ry
     energy   new            =     -49.7107561484 Ry

     CASE: energy  _new < energy  _old

     new trust radius        =       0.0220398983 bohr
     new conv_thr            =       0.0000000346 Ry


ATOMIC_POSITIONS (crystal)
Al       0.000000000   0.000000000  -0.001457821
Al       0.500000000   0.500000000  -0.001457819
Al       0.500000000   0.000000000   0.101457820
Al       0.000000000   0.500000000   0.101457820



     Writing output data file Al_100_1_4.save
     NEW-OLD atomic charge density approx. for the potential

     negative rho (up, down):  2.499E-06 0.000E+00

     total cpu time spent up to now is      306.5 secs

     per-process dynamical memory:    86.7 Mb

     Self-consistent Calculation

     iteration #  1     ecut=    30.00 Ry     beta=0.30
     Davidson diagonalization with overlap
     ethr =  1.00E-06,  avg # of iterations =  4.1

     negative rho (up, down):  1.267E-06 0.000E+00

     total cpu time spent up to now is      322.8 secs

     total energy              =     -49.71110402 Ry
     Harris-Foulkes estimate   =     -49.71111274 Ry
     estimated scf accuracy    <       0.00007169 Ry

     iteration #  2     ecut=    30.00 Ry     beta=0.30
     Davidson diagonalization with overlap
     ethr =  5.97E-07,  avg # of iterations =  1.0

     negative rho (up, down):  4.291E-06 0.000E+00

     total cpu time spent up to now is      332.9 secs

     total energy              =     -49.71108664 Ry
     Harris-Foulkes estimate   =     -49.71110505 Ry
     estimated scf accuracy    <       0.00004201 Ry

     iteration #  3     ecut=    30.00 Ry     beta=0.30
     Davidson diagonalization with overlap
     ethr =  3.50E-07,  avg # of iterations =  2.0

     negative rho (up, down):  2.849E-06 0.000E+00

     total cpu time spent up to now is      343.7 secs

     total energy              =     -49.71109574 Ry
     Harris-Foulkes estimate   =     -49.71109577 Ry
     estimated scf accuracy    <       0.00000082 Ry

     iteration #  4     ecut=    30.00 Ry     beta=0.30
     Davidson diagonalization with overlap
     ethr =  6.79E-09,  avg # of iterations =  1.8

     negative rho (up, down):  1.950E-06 0.000E+00

     total cpu time spent up to now is      353.2 secs

     total energy              =     -49.71109593 Ry
     Harris-Foulkes estimate   =     -49.71109581 Ry
     estimated scf accuracy    <       0.00000065 Ry

     iteration #  5     ecut=    30.00 Ry     beta=0.30
     Davidson diagonalization with overlap
     ethr =  5.45E-09,  avg # of iterations =  1.0

     negative rho (up, down):  1.741E-07 0.000E+00

     total cpu time spent up to now is      361.5 secs

     total energy              =     -49.71109540 Ry
     Harris-Foulkes estimate   =     -49.71109596 Ry
     estimated scf accuracy    <       0.00000119 Ry

     iteration #  6     ecut=    30.00 Ry     beta=0.30
     Davidson diagonalization with overlap
     ethr =  5.45E-09,  avg # of iterations =  2.0

     negative rho (up, down):  9.833E-08 0.000E+00

     total cpu time spent up to now is      372.3 secs

     total energy              =     -49.71109559 Ry
     Harris-Foulkes estimate   =     -49.71109563 Ry
     estimated scf accuracy    <       0.00000011 Ry

     iteration #  7     ecut=    30.00 Ry     beta=0.30
     Davidson diagonalization with overlap
     ethr =  8.82E-10,  avg # of iterations =  1.0

     negative rho (up, down):  6.082E-08 0.000E+00

     total cpu time spent up to now is      382.4 secs

     total energy              =     -49.71109561 Ry
     Harris-Foulkes estimate   =     -49.71109560 Ry
     estimated scf accuracy    <       0.00000004 Ry

     iteration #  8     ecut=    30.00 Ry     beta=0.30
     Davidson diagonalization with overlap
     ethr =  3.56E-10,  avg # of iterations =  1.0

     negative rho (up, down):  7.602E-08 0.000E+00

     total cpu time spent up to now is      392.4 secs

     total energy              =     -49.71109560 Ry
     Harris-Foulkes estimate   =     -49.71109561 Ry
     estimated scf accuracy    <       0.00000004 Ry

     iteration #  9     ecut=    30.00 Ry     beta=0.30
     Davidson diagonalization with overlap
     ethr =  2.96E-10,  avg # of iterations =  1.0

     total cpu time spent up to now is      399.9 secs

     End of self-consistent calculation

          k = 0.0000 0.0000 0.0000 (  6123 PWs)   bands (ev):

   -11.3910  -7.4794  -3.4106  -3.2100  -3.2100  -1.7267  -1.7267   0.4154
     0.4154   0.7976

          k = 0.0000 0.0625 0.0000 (  6131 PWs)   bands (ev):

   -11.3554  -7.4443  -3.7502  -3.3770  -3.1774  -1.6936  -1.1271  -0.0631
     0.4474   0.8315

          k = 0.0000 0.1250 0.0000 (  6135 PWs)   bands (ev):

   -11.2488  -7.3388  -4.6355  -3.2768  -3.0788  -1.5976  -0.8806  -0.0658
     0.5436   0.9325

          k = 0.0000 0.1875 0.0000 (  6133 PWs)   bands (ev):

   -11.0713  -7.1634  -5.5241  -3.1101  -2.9149  -1.7642  -1.3895   0.7040
     1.0977   1.1116

          k = 0.0000 0.2500 0.0000 (  6115 PWs)   bands (ev):

   -10.8231  -6.9182  -6.3677  -2.8771  -2.6855  -2.5582  -1.1708   0.9284
     1.0617   1.5081

          k = 0.0000 0.3125 0.0000 (  6117 PWs)   bands (ev):

   -10.5046  -7.1547  -6.6039  -3.3194  -2.5788  -2.3906  -0.8704   0.4572
     0.7551   1.2177

          k = 0.0000 0.3750 0.0000 (  6090 PWs)   bands (ev):

   -10.1162  -7.8791  -6.2209  -4.0250  -2.2153  -2.0296  -0.5039  -0.1642
     0.0676   1.5703

          k = 0.0000 0.4375 0.0000 (  6100 PWs)   bands (ev):

    -9.6587  -8.5391  -5.7704  -4.6708  -1.7886  -1.6036  -0.7568  -0.5549
    -0.0765   0.9332

          k = 0.0000-0.5000 0.0000 (  6086 PWs)   bands (ev):

    -9.1327  -9.1327  -5.2531  -5.2531  -1.3009  -1.3009  -1.1119  -1.1119
     0.4071   0.4071

          k = 0.0625 0.0625 0.0000 (  6129 PWs)   bands (ev):

   -11.3199  -7.4091  -3.7170  -3.7170  -3.3436  -1.0951  -1.0951  -0.0323
    -0.0323   0.8649

          k = 0.0625 0.1250 0.0000 (  6136 PWs)   bands (ev):

   -11.2133  -7.3037  -4.6016  -3.6177  -3.2435  -1.0242  -0.8253  -0.0550
     0.0787   0.9634

          k = 0.0625 0.1875 0.0000 (  6140 PWs)   bands (ev):

   -11.0358  -7.1284  -5.4901  -3.4520  -3.0770  -1.7119  -0.8142   0.1945
     1.1137   1.1517

          k = 0.0625 0.2500 0.0000 (  6125 PWs)   bands (ev):

   -10.7877  -6.8834  -6.3336  -3.2218  -2.8445  -2.5177  -0.5837   0.3598
     0.9472   1.3552

          k = 0.0625 0.3125 0.0000 (  6103 PWs)   bands (ev):

   -10.4693  -7.1201  -6.5691  -3.2930  -2.9096  -2.5464  -0.2854   0.2356
     0.3181   1.0345

          k = 0.0625 0.3750 0.0000 (  6091 PWs)   bands (ev):

   -10.0810  -7.8445  -6.1863  -3.9924  -2.5512  -2.1836  -0.4453  -0.1690
     0.0760   1.2328

          k = 0.0625 0.4375 0.0000 (  6087 PWs)   bands (ev):

    -9.6236  -8.5043  -5.7360  -4.6372  -2.1214  -1.7584  -1.0674  -0.7369
     0.4982   1.4827

          k = 0.0625-0.5000 0.0000 (  6102 PWs)   bands (ev):

    -9.0977  -9.0977  -5.2192  -5.2192  -1.6266  -1.6266  -1.2738  -1.2738
     0.9744   0.9744

          k = 0.1250 0.1250 0.0000 (  6133 PWs)   bands (ev):

   -11.1068  -7.1985  -4.5007  -4.5007  -3.1436  -0.7724  -0.7724   0.0753
     0.0753   1.0441

          k = 0.1250 0.1875 0.0000 (  6118 PWs)   bands (ev):

   -10.9294  -7.0234  -5.3880  -4.3329  -2.9776  -1.6116  -0.6200   0.2388
     0.8717   1.2515

          k = 0.1250 0.2500 0.0000 (  6118 PWs)   bands (ev):

   -10.6816  -6.7787  -6.2309  -4.0985  -2.7459  -2.4193  -0.4242   0.1298
     0.4685   1.5588

          k = 0.1250 0.3125 0.0000 (  6109 PWs)   bands (ev):

   -10.3634  -7.0167  -6.4649  -3.8023  -3.1737  -2.4494  -0.6097  -0.2319
     0.7619   0.9590

          k = 0.1250 0.3750 0.0000 (  6081 PWs)   bands (ev):

    -9.9754  -7.7405  -6.0826  -3.9016  -3.4102  -2.0893  -1.2961  -0.2730
     0.6925   1.1171

          k = 0.1250 0.4375 0.0000 (  6083 PWs)   bands (ev):

    -9.5183  -8.3999  -5.6331  -4.5375  -2.9844  -1.9225  -1.6693  -0.6948
     0.9225   1.5295

          k = 0.1250-0.5000 0.0000 (  6074 PWs)   bands (ev):

    -8.9928  -8.9928  -5.1172  -5.1172  -2.4858  -2.4858  -1.1965  -1.1965
     1.3544   1.3544

          k = 0.1875 0.1875 0.0000 (  6117 PWs)   bands (ev):

   -10.7524  -6.8486  -5.2183  -5.2183  -2.8126  -1.4536  -1.4536   0.0824
     1.4143   1.4143

          k = 0.1875 0.2500 0.0000 (  6108 PWs)   bands (ev):

   -10.5047  -6.6044  -6.0599  -4.9814  -2.5826  -2.2575  -1.2399  -0.7143
     1.6406   1.7589

          k = 0.1875 0.3125 0.0000 (  6091 PWs)   bands (ev):

   -10.1870  -6.8446  -6.2914  -4.6783  -3.0127  -2.2890  -1.4636  -0.9834
     1.0767   1.9289

          k = 0.1875 0.3750 0.0000 (  6080 PWs)   bands (ev):

    -9.7995  -7.5676  -5.9102  -4.3156  -3.7059  -2.1557  -1.9350  -0.7393
     0.5171   1.6881

          k = 0.1875 0.4375 0.0000 (  6078 PWs)   bands (ev):

    -9.3430  -8.2260  -5.4622  -4.3803  -3.8457  -2.7863  -1.5284  -0.7360
     0.3201   1.0997

          k = 0.1875-0.5000 0.0000 (  6098 PWs)   bands (ev):

    -8.8182  -8.8182  -4.9491  -4.9491  -3.3534  -3.3534  -1.0930  -1.0930
     0.6076   0.6076

          k = 0.2500 0.2500 0.0000 (  6089 PWs)   bands (ev):

   -10.2575  -6.3610  -5.8210  -5.8210  -2.3556  -2.0341  -2.0341  -1.5219
     2.0012   2.0013

          k = 0.2500 0.3125 0.0000 (  6094 PWs)   bands (ev):

    -9.9403  -6.6040  -6.0492  -5.5148  -2.7843  -2.2775  -2.0684  -1.7540
     1.2901   1.5820

          k = 0.2500 0.3750 0.0000 (  6088 PWs)   bands (ev):

    -9.5536  -7.3256  -5.6698  -5.1424  -3.4801  -2.9743  -1.7282  -1.4328
     0.6520   0.9326

          k = 0.2500 0.4375 0.0000 (  6088 PWs)   bands (ev):

    -9.0979  -7.9830  -5.2247  -4.7129  -4.1082  -3.6081  -1.3594  -1.1281
     0.1539   0.3783

          k = 0.2500-0.5000 0.0000 (  6098 PWs)   bands (ev):

    -8.5740  -8.5740  -4.7246  -4.7246  -4.1671  -4.1671  -1.0681  -1.0681
     0.0271   0.0271

          k = 0.3125 0.3125 0.0000 (  6098 PWs)   bands (ev):

    -9.6239  -6.2956  -6.2956  -5.7391  -3.0377  -2.4935  -2.4935  -1.7950
     0.8751   1.5759

          k = 0.3125 0.3750 0.0000 (  6092 PWs)   bands (ev):

    -9.2381  -7.0153  -5.9198  -5.3631  -3.7371  -3.1838  -2.1463  -1.4930
     0.2595   0.9147

          k = 0.3125 0.4375 0.0000 (  6088 PWs)   bands (ev):

    -8.7834  -7.6711  -5.4786  -4.9320  -4.3623  -3.8164  -1.7584  -1.2676
    -0.1554   0.3363

          k = 0.3125-0.5000 0.0000 (  6082 PWs)   bands (ev):

    -8.2608  -8.2608  -4.9815  -4.9815  -4.3775  -4.3775  -1.3896  -1.3896
    -0.0967  -0.0967

          k = 0.3750 0.3750 0.0000 (  6086 PWs)   bands (ev):

    -8.8533  -6.6371  -6.6371  -5.0014  -4.4276  -2.8250  -2.8250  -1.3342
    -0.2170   1.2591

          k = 0.3750 0.4375 0.0000 (  6079 PWs)   bands (ev):

    -8.4000  -7.2908  -6.1919  -5.1168  -4.5125  -3.4520  -2.4103  -1.5207
    -0.2238   0.6585

          k = 0.3750-0.5000 0.0000 (  6084 PWs)   bands (ev):

    -7.8789  -7.8789  -5.6814  -5.6814  -4.0190  -4.0190  -1.9554  -1.9554
     0.1436   0.1436

          k = 0.4375 0.4375 0.0000 (  6100 PWs)   bands (ev):

    -7.9483  -6.8431  -6.8431  -5.7494  -4.0867  -3.0252  -3.0252  -2.0211
     0.0787   1.0659

          k = 0.4375-0.5000 0.0000 (  6110 PWs)   bands (ev):

    -7.4290  -7.4290  -6.3285  -6.3285  -3.5868  -3.5868  -2.5428  -2.5428
     0.5288   0.5288

          k =-0.5000-0.5000 0.0000 (  6124 PWs)   bands (ev):

    -6.9118  -6.9118  -6.9118  -6.9118  -3.0923  -3.0923  -3.0923  -3.0923
     1.0009   1.0009

     the Fermi energy is    -1.8564 ev

!    total energy              =     -49.71109562 Ry
     Harris-Foulkes estimate   =     -49.71109560 Ry
     estimated scf accuracy    <       0.00000002 Ry

     The total energy is the sum of the following terms:

     one-electron contribution =    -114.05936590 Ry
     hartree contribution      =      58.68914857 Ry
     xc contribution           =     -39.66709146 Ry
     ewald contribution        =      45.32613128 Ry
     smearing contrib. (-TS)   =       0.00008189 Ry

     convergence has been achieved in   9 iterations

     Forces acting on atoms (Ry/au):

     atom    1 type  1   force =     0.00000000    0.00000000   -0.00267378
     atom    2 type  1   force =     0.00000000    0.00000000   -0.00267379
     atom    3 type  1   force =     0.00000000    0.00000000    0.00267379
     atom    4 type  1   force =     0.00000000    0.00000000    0.00267379

     Total force =     0.005348     Total SCF correction =     0.000082


     entering subroutine stress ...

          total   stress  (Ry/bohr**3)                   (kbar)     P=  -13.09
  -0.00013404   0.00000000   0.00000000        -19.72      0.00      0.00
   0.00000000  -0.00013404   0.00000000          0.00    -19.72      0.00
   0.00000000   0.00000000   0.00000113          0.00      0.00      0.17


     number of scf cycles    =   5
     number of bfgs steps    =   4

     energy   old            =     -49.7107561484 Ry
     energy   new            =     -49.7110956203 Ry

     CASE: energy  _new < energy  _old

     new trust radius        =       0.0247749833 bohr
     new conv_thr            =       0.0000000267 Ry


ATOMIC_POSITIONS (crystal)
Al       0.000000000   0.000000000  -0.002109365
Al       0.500000000   0.500000000  -0.002109363
Al       0.500000000   0.000000000   0.102109364
Al       0.000000000   0.500000000   0.102109364



     Writing output data file Al_100_1_4.save
     NEW-OLD atomic charge density approx. for the potential

     negative rho (up, down):  3.058E-06 0.000E+00

     total cpu time spent up to now is      404.1 secs

     per-process dynamical memory:    86.7 Mb

     Self-consistent Calculation

     iteration #  1     ecut=    30.00 Ry     beta=0.30
     Davidson diagonalization with overlap
     ethr =  1.00E-06,  avg # of iterations =  4.3

     negative rho (up, down):  1.493E-06 0.000E+00

     total cpu time spent up to now is      420.4 secs

     total energy              =     -49.71124561 Ry
     Harris-Foulkes estimate   =     -49.71125643 Ry
     estimated scf accuracy    <       0.00008938 Ry

     iteration #  2     ecut=    30.00 Ry     beta=0.30
     Davidson diagonalization with overlap
     ethr =  7.45E-07,  avg # of iterations =  1.0

     negative rho (up, down):  4.494E-06 0.000E+00

     total cpu time spent up to now is      429.3 secs

     total energy              =     -49.71122405 Ry
     Harris-Foulkes estimate   =     -49.71124680 Ry
     estimated scf accuracy    <       0.00005223 Ry

     iteration #  3     ecut=    30.00 Ry     beta=0.30
     Davidson diagonalization with overlap
     ethr =  4.35E-07,  avg # of iterations =  2.0

     negative rho (up, down):  2.921E-06 0.000E+00

     total cpu time spent up to now is      439.9 secs

     total energy              =     -49.71123530 Ry
     Harris-Foulkes estimate   =     -49.71123533 Ry
     estimated scf accuracy    <       0.00000103 Ry

     iteration #  4     ecut=    30.00 Ry     beta=0.30
     Davidson diagonalization with overlap
     ethr =  8.57E-09,  avg # of iterations =  1.8

     negative rho (up, down):  1.979E-06 0.000E+00

     total cpu time spent up to now is      450.3 secs

     total energy              =     -49.71123557 Ry
     Harris-Foulkes estimate   =     -49.71123539 Ry
     estimated scf accuracy    <       0.00000089 Ry

     iteration #  5     ecut=    30.00 Ry     beta=0.30
     Davidson diagonalization with overlap
     ethr =  7.41E-09,  avg # of iterations =  1.0

     negative rho (up, down):  1.033E-07 0.000E+00

     total cpu time spent up to now is      458.8 secs

     total energy              =     -49.71123494 Ry
     Harris-Foulkes estimate   =     -49.71123560 Ry
     estimated scf accuracy    <       0.00000158 Ry

     iteration #  6     ecut=    30.00 Ry     beta=0.30
     Davidson diagonalization with overlap
     ethr =  7.41E-09,  avg # of iterations =  2.0

     negative rho (up, down):  3.401E-08 0.000E+00

     total cpu time spent up to now is      468.2 secs

     total energy              =     -49.71123521 Ry
     Harris-Foulkes estimate   =     -49.71123517 Ry
     estimated scf accuracy    <       0.00000038 Ry

     iteration #  7     ecut=    30.00 Ry     beta=0.30
     Davidson diagonalization with overlap
     ethr =  3.15E-09,  avg # of iterations =  1.0

     total cpu time spent up to now is      476.8 secs

     total energy              =     -49.71123518 Ry
     Harris-Foulkes estimate   =     -49.71123522 Ry
     estimated scf accuracy    <       0.00000007 Ry

     iteration #  8     ecut=    30.00 Ry     beta=0.30
     Davidson diagonalization with overlap
     ethr =  5.44E-10,  avg # of iterations =  2.0

     total cpu time spent up to now is      485.9 secs

     total energy              =     -49.71123519 Ry
     Harris-Foulkes estimate   =     -49.71123519 Ry
     estimated scf accuracy    <       0.00000009 Ry

     iteration #  9     ecut=    30.00 Ry     beta=0.30
     Davidson diagonalization with overlap
     ethr =  5.44E-10,  avg # of iterations =  1.0

     negative rho (up, down):  1.908E-07 0.000E+00

     total cpu time spent up to now is      498.4 secs

     total energy              =     -49.71123526 Ry
     Harris-Foulkes estimate   =     -49.71123519 Ry
     estimated scf accuracy    <       0.00000008 Ry

     iteration # 10     ecut=    30.00 Ry     beta=0.30
     Davidson diagonalization with overlap
     ethr =  5.44E-10,  avg # of iterations =  1.0

     negative rho (up, down):  2.351E-07 0.000E+00

     total cpu time spent up to now is      510.9 secs

     total energy              =     -49.71123525 Ry
     Harris-Foulkes estimate   =     -49.71123526 Ry
     estimated scf accuracy    <       0.00000003 Ry

     iteration # 11     ecut=    30.00 Ry     beta=0.30
     Davidson diagonalization with overlap
     ethr =  2.82E-10,  avg # of iterations =  1.0

     total cpu time spent up to now is      518.4 secs

     End of self-consistent calculation

          k = 0.0000 0.0000 0.0000 (  6123 PWs)   bands (ev):

   -11.3289  -7.5001  -3.4320  -3.1421  -3.1421  -1.6693  -1.6693   0.3901
     0.3901   0.7665

          k = 0.0000 0.0625 0.0000 (  6131 PWs)   bands (ev):

   -11.2934  -7.4650  -3.6846  -3.3984  -3.1095  -1.6367  -1.0677  -0.0837
     0.4221   0.8006

          k = 0.0000 0.1250 0.0000 (  6135 PWs)   bands (ev):

   -11.1868  -7.3596  -4.5712  -3.2981  -3.0109  -1.5440  -0.8955  -0.0059
     0.5183   0.9019

          k = 0.0000 0.1875 0.0000 (  6133 PWs)   bands (ev):

   -11.0092  -7.1841  -5.4605  -3.1313  -2.8469  -1.7850  -1.3290   0.6786
     1.0680   1.1689

          k = 0.0000 0.2500 0.0000 (  6115 PWs)   bands (ev):

   -10.7610  -6.9389  -6.3046  -2.8980  -2.6175  -2.5792  -1.1099   0.9029
     1.0533   1.5770

          k = 0.0000 0.3125 0.0000 (  6117 PWs)   bands (ev):

   -10.4425  -7.0918  -6.6245  -3.3399  -2.5995  -2.3224  -0.8096   0.4440
     0.8239   1.1921

          k = 0.0000 0.3750 0.0000 (  6090 PWs)   bands (ev):

   -10.0540  -7.8165  -6.2415  -4.0454  -2.2355  -1.9614  -0.4430  -0.1802
     0.1363   1.5445

          k = 0.0000 0.4375 0.0000 (  6100 PWs)   bands (ev):

    -9.5964  -8.4766  -5.7909  -4.6912  -1.8082  -1.5353  -0.7745  -0.4863
    -0.0152   0.9944

          k = 0.0000-0.5000 0.0000 (  6086 PWs)   bands (ev):

    -9.0703  -9.0703  -5.2736  -5.2736  -1.3198  -1.3198  -1.0435  -1.0435
     0.4689   0.4689

          k = 0.0625 0.0625 0.0000 (  6129 PWs)   bands (ev):

   -11.2578  -7.4298  -3.6514  -3.6514  -3.3650  -1.0364  -1.0364  -0.0524
    -0.0524   0.8341

          k = 0.0625 0.1250 0.0000 (  6136 PWs)   bands (ev):

   -11.1512  -7.3244  -4.5374  -3.5521  -3.2647  -0.9937  -0.8147  -0.0274
     0.0909   0.9334

          k = 0.0625 0.1875 0.0000 (  6140 PWs)   bands (ev):

   -10.9737  -7.1491  -5.4266  -3.3866  -3.0981  -1.7322  -0.7518   0.1739
     1.0880   1.2117

          k = 0.0625 0.2500 0.0000 (  6125 PWs)   bands (ev):

   -10.7256  -6.9040  -6.2704  -3.1577  -2.8653  -2.5362  -0.5215   0.3423
     1.0047   1.3360

          k = 0.0625 0.3125 0.0000 (  6103 PWs)   bands (ev):

   -10.4071  -7.0572  -6.5897  -3.3132  -2.8433  -2.5669  -0.2232   0.3027
     0.3063   1.0061

          k = 0.0625 0.3750 0.0000 (  6091 PWs)   bands (ev):

   -10.0188  -7.7818  -6.2069  -4.0130  -2.4845  -2.2038  -0.3780  -0.1839
     0.1385   1.2055

          k = 0.0625 0.4375 0.0000 (  6087 PWs)   bands (ev):

    -9.5613  -8.4418  -5.7565  -4.6577  -2.0546  -1.7779  -1.0004  -0.7542
     0.5610   1.5430

          k = 0.0625-0.5000 0.0000 (  6102 PWs)   bands (ev):

    -9.0353  -9.0353  -5.2396  -5.2396  -1.5597  -1.5597  -1.2924  -1.2924
     1.0374   1.0374

          k = 0.1250 0.1250 0.0000 (  6133 PWs)   bands (ev):

   -11.0447  -7.2192  -4.4365  -4.4365  -3.1648  -0.7926  -0.7926   0.1377
     0.1377   1.0186

          k = 0.1250 0.1875 0.0000 (  6118 PWs)   bands (ev):

   -10.8673  -7.0440  -5.3244  -4.2688  -2.9986  -1.6310  -0.6391   0.3013
     0.9211   1.3123

          k = 0.1250 0.2500 0.0000 (  6118 PWs)   bands (ev):

   -10.6194  -6.7993  -6.1677  -4.0347  -2.7666  -2.4380  -0.4417   0.1959
     0.5311   1.5363

          k = 0.1250 0.3125 0.0000 (  6109 PWs)   bands (ev):

   -10.3012  -6.9538  -6.4855  -3.7414  -3.1894  -2.4698  -0.5432  -0.2462
     0.8248   0.9317

          k = 0.1250 0.3750 0.0000 (  6081 PWs)   bands (ev):

    -9.9132  -7.6778  -6.1032  -3.9219  -3.3447  -2.1092  -1.2298  -0.2848
     0.6615   1.1803

          k = 0.1250 0.4375 0.0000 (  6083 PWs)   bands (ev):

    -9.4560  -8.3374  -5.6536  -4.5581  -2.9185  -1.8565  -1.6884  -0.7103
     0.8945   1.5931

          k = 0.1250-0.5000 0.0000 (  6074 PWs)   bands (ev):

    -8.9304  -8.9304  -5.1377  -5.1377  -2.4198  -2.4198  -1.2143  -1.2143
     1.3281   1.3281

          k = 0.1875 0.1875 0.0000 (  6117 PWs)   bands (ev):

   -10.6902  -6.8693  -5.1548  -5.1548  -2.8334  -1.4724  -1.4724   0.1484
     1.4754   1.4754

          k = 0.1875 0.2500 0.0000 (  6108 PWs)   bands (ev):

   -10.4426  -6.6250  -5.9967  -4.9180  -2.6030  -2.2761  -1.2578  -0.6480
     1.7021   1.7348

          k = 0.1875 0.3125 0.0000 (  6091 PWs)   bands (ev):

   -10.1248  -6.7817  -6.3120  -4.6154  -3.0309  -2.3091  -1.3976  -0.9998
     1.0506   1.9909

          k = 0.1875 0.3750 0.0000 (  6080 PWs)   bands (ev):

    -9.7372  -7.5049  -5.9308  -4.2568  -3.7200  -2.0899  -1.9543  -0.7526
     0.4874   1.6628

          k = 0.1875 0.4375 0.0000 (  6078 PWs)   bands (ev):

    -9.2806  -8.1635  -5.4828  -4.4006  -3.7806  -2.7207  -1.5465  -0.7478
     0.2884   1.0736

          k = 0.1875-0.5000 0.0000 (  6098 PWs)   bands (ev):

    -8.7558  -8.7558  -4.9698  -4.9698  -3.2878  -3.2878  -1.1088  -1.1088
     0.5795   0.5795

          k = 0.2500 0.2500 0.0000 (  6089 PWs)   bands (ev):

   -10.1953  -6.3816  -5.7579  -5.7579  -2.3756  -2.0524  -2.0524  -1.4559
     1.9760   1.9761

          k = 0.2500 0.3125 0.0000 (  6094 PWs)   bands (ev):

    -9.8781  -6.5412  -6.0698  -5.4519  -2.8026  -2.2119  -2.0879  -1.7715
     1.2644   1.5569

          k = 0.2500 0.3750 0.0000 (  6088 PWs)   bands (ev):

    -9.4913  -7.2629  -5.6904  -5.0800  -3.4980  -2.9089  -1.7465  -1.4488
     0.6247   0.9065

          k = 0.2500 0.4375 0.0000 (  6088 PWs)   bands (ev):

    -9.0355  -7.9204  -5.2455  -4.6554  -4.1211  -3.5427  -1.3753  -1.1411
     0.1233   0.3502

          k = 0.2500-0.5000 0.0000 (  6098 PWs)   bands (ev):

    -8.5116  -8.5116  -4.7448  -4.7448  -4.1023  -4.1023  -1.0801  -1.0801
    -0.0048  -0.0048

          k = 0.3125 0.3125 0.0000 (  6098 PWs)   bands (ev):

    -9.5616  -6.2327  -6.2327  -5.7598  -2.9723  -2.5115  -2.5115  -1.8133
     0.8491   1.5500

          k = 0.3125 0.3750 0.0000 (  6092 PWs)   bands (ev):

    -9.1758  -6.9526  -5.8572  -5.3840  -3.6718  -3.2020  -2.1636  -1.5090
     0.2314   0.8883

          k = 0.3125 0.4375 0.0000 (  6088 PWs)   bands (ev):

    -8.7210  -7.6085  -5.4166  -4.9523  -4.2977  -3.8340  -1.7743  -1.2796
    -0.1873   0.3085

          k = 0.3125-0.5000 0.0000 (  6082 PWs)   bands (ev):

    -8.1983  -8.1983  -4.9250  -4.9250  -4.3897  -4.3897  -1.4024  -1.4024
    -0.1276  -0.1276

          k = 0.3750 0.3750 0.0000 (  6086 PWs)   bands (ev):

    -8.7910  -6.5745  -6.5745  -5.0216  -4.3630  -2.8429  -2.8429  -1.3462
    -0.2489   1.2328

          k = 0.3750 0.4375 0.0000 (  6079 PWs)   bands (ev):

    -8.3376  -7.2282  -6.1294  -5.0607  -4.5242  -3.4700  -2.4275  -1.5335
    -0.2548   0.6318

          k = 0.3750-0.5000 0.0000 (  6084 PWs)   bands (ev):

    -7.8164  -7.8164  -5.6196  -5.6196  -4.0365  -4.0365  -1.9711  -1.9711
     0.1155   0.1155

          k = 0.4375 0.4375 0.0000 (  6100 PWs)   bands (ev):

    -7.8858  -6.7805  -6.7805  -5.6877  -4.1042  -3.0431  -3.0431  -2.0369
     0.0506   1.0395

          k = 0.4375-0.5000 0.0000 (  6110 PWs)   bands (ev):

    -7.3665  -7.3665  -6.2661  -6.2661  -3.6048  -3.6048  -2.5599  -2.5599
     0.5020   0.5020

          k =-0.5000-0.5000 0.0000 (  6124 PWs)   bands (ev):

    -6.8493  -6.8493  -6.8493  -6.8493  -3.1100  -3.1100  -3.1100  -3.1100
     0.9744   0.9744

     the Fermi energy is    -1.8535 ev

!    total energy              =     -49.71123527 Ry
     Harris-Foulkes estimate   =     -49.71123525 Ry
     estimated scf accuracy    <       0.00000001 Ry

     The total energy is the sum of the following terms:

     one-electron contribution =    -113.50397762 Ry
     hartree contribution      =      58.41574922 Ry
     xc contribution           =     -39.65500452 Ry
     ewald contribution        =      45.03203133 Ry
     smearing contrib. (-TS)   =      -0.00003368 Ry

     convergence has been achieved in  11 iterations

     Forces acting on atoms (Ry/au):

     atom    1 type  1   force =     0.00000000    0.00000000   -0.00017949
     atom    2 type  1   force =     0.00000000    0.00000000   -0.00017949
     atom    3 type  1   force =     0.00000000    0.00000000    0.00017949
     atom    4 type  1   force =     0.00000000    0.00000000    0.00017949

     Total force =     0.000359     Total SCF correction =     0.000062
     SCF correction compared to forces is large: reduce conv_thr to get better values


     entering subroutine stress ...

          total   stress  (Ry/bohr**3)                   (kbar)     P=  -13.89
  -0.00013777   0.00000000   0.00000000        -20.27      0.00      0.00
   0.00000000  -0.00013777   0.00000000          0.00    -20.27      0.00
   0.00000000   0.00000000  -0.00000768          0.00      0.00     -1.13


     number of scf cycles    =   6
     number of bfgs steps    =   5

     energy   old            =     -49.7110956203 Ry
     energy   new            =     -49.7112352665 Ry

     CASE: energy  _new < energy  _old

     new trust radius        =       0.0017828083 bohr
     new conv_thr            =       0.0000000100 Ry


ATOMIC_POSITIONS (crystal)
Al       0.000000000   0.000000000  -0.002156251
Al       0.500000000   0.500000000  -0.002156248
Al       0.500000000   0.000000000   0.102156249
Al       0.000000000   0.500000000   0.102156249



     Writing output data file Al_100_1_4.save
     NEW-OLD atomic charge density approx. for the potential

     total cpu time spent up to now is      522.4 secs

     per-process dynamical memory:    86.7 Mb

     Self-consistent Calculation

     iteration #  1     ecut=    30.00 Ry     beta=0.30
     Davidson diagonalization with overlap
     ethr =  1.00E-06,  avg # of iterations =  1.1

     Threshold (ethr) on eigenvalues was too large:
     Diagonalizing with lowered threshold

     Davidson diagonalization with overlap
     ethr =  7.43E-10,  avg # of iterations =  3.9

     total cpu time spent up to now is      543.8 secs

     total energy              =     -49.71123596 Ry
     Harris-Foulkes estimate   =     -49.71123600 Ry
     estimated scf accuracy    <       0.00000033 Ry

     iteration #  2     ecut=    30.00 Ry     beta=0.30
     Davidson diagonalization with overlap
     ethr =  2.73E-09,  avg # of iterations =  1.0

     total cpu time spent up to now is      553.5 secs

     total energy              =     -49.71123591 Ry
     Harris-Foulkes estimate   =     -49.71123597 Ry
     estimated scf accuracy    <       0.00000018 Ry

     iteration #  3     ecut=    30.00 Ry     beta=0.30
     Davidson diagonalization with overlap
     ethr =  1.52E-09,  avg # of iterations =  2.0

     total cpu time spent up to now is      562.8 secs

     End of self-consistent calculation

          k = 0.0000 0.0000 0.0000 (  6123 PWs)   bands (ev):

   -11.3253  -7.5023  -3.4341  -3.1381  -3.1381  -1.6661  -1.6661   0.3876
     0.3876   0.7637

          k = 0.0000 0.0625 0.0000 (  6131 PWs)   bands (ev):

   -11.2898  -7.4672  -3.6807  -3.4005  -3.1054  -1.6334  -1.0642  -0.0859
     0.4195   0.7977

          k = 0.0000 0.1250 0.0000 (  6135 PWs)   bands (ev):

   -11.1831  -7.3618  -4.5674  -3.3002  -3.0068  -1.5411  -0.8972  -0.0024
     0.5157   0.8991

          k = 0.0000 0.1875 0.0000 (  6133 PWs)   bands (ev):

   -11.0056  -7.1863  -5.4567  -3.1334  -2.8429  -1.7873  -1.3255   0.6760
     1.0652   1.1721

          k = 0.0000 0.2500 0.0000 (  6115 PWs)   bands (ev):

   -10.7574  -6.9411  -6.3009  -2.9001  -2.6134  -2.5814  -1.1064   0.9003
     1.0521   1.5810

          k = 0.0000 0.3125 0.0000 (  6117 PWs)   bands (ev):

   -10.4388  -7.0881  -6.6267  -3.3421  -2.6015  -2.3184  -0.8061   0.4424
     0.8280   1.1895

          k = 0.0000 0.3750 0.0000 (  6090 PWs)   bands (ev):

   -10.0504  -7.8128  -6.2437  -4.0476  -2.2376  -1.9573  -0.4395  -0.1820
     0.1404   1.5419

          k = 0.0000 0.4375 0.0000 (  6100 PWs)   bands (ev):

    -9.5928  -8.4729  -5.7931  -4.6934  -1.8102  -1.5313  -0.7764  -0.4822
    -0.0116   0.9980

          k = 0.0000-0.5000 0.0000 (  6086 PWs)   bands (ev):

    -9.0666  -9.0666  -5.2758  -5.2758  -1.3217  -1.3217  -1.0394  -1.0394
     0.4725   0.4725

          k = 0.0625 0.0625 0.0000 (  6129 PWs)   bands (ev):

   -11.2542  -7.4320  -3.6476  -3.6476  -3.3671  -1.0330  -1.0330  -0.0546
    -0.0546   0.8313

          k = 0.0625 0.1250 0.0000 (  6136 PWs)   bands (ev):

   -11.1476  -7.3266  -4.5336  -3.5483  -3.2668  -0.9930  -0.8140  -0.0273
     0.0920   0.9306

          k = 0.0625 0.1875 0.0000 (  6140 PWs)   bands (ev):

   -10.9701  -7.1513  -5.4228  -3.3827  -3.1002  -1.7343  -0.7481   0.1717
     1.0855   1.2152

          k = 0.0625 0.2500 0.0000 (  6125 PWs)   bands (ev):

   -10.7220  -6.9062  -6.2667  -3.1539  -2.8674  -2.5382  -0.5179   0.3404
     1.0079   1.3340

          k = 0.0625 0.3125 0.0000 (  6103 PWs)   bands (ev):

   -10.4035  -7.0535  -6.5919  -3.3154  -2.8394  -2.5690  -0.2196   0.3048
     0.3067   1.0034

          k = 0.0625 0.3750 0.0000 (  6091 PWs)   bands (ev):

   -10.0152  -7.7782  -6.2091  -4.0152  -2.4805  -2.2058  -0.3740  -0.1856
     0.1421   1.2028

          k = 0.0625 0.4375 0.0000 (  6087 PWs)   bands (ev):

    -9.5576  -8.4381  -5.7587  -4.6598  -2.0506  -1.7799  -0.9964  -0.7561
     0.5647   1.5465

          k = 0.0625-0.5000 0.0000 (  6102 PWs)   bands (ev):

    -9.0317  -9.0317  -5.2418  -5.2418  -1.5557  -1.5557  -1.2944  -1.2944
     1.0411   1.0411

          k = 0.1250 0.1250 0.0000 (  6133 PWs)   bands (ev):

   -11.0411  -7.2214  -4.4327  -4.4327  -3.1669  -0.7947  -0.7947   0.1413
     0.1413   1.0161

          k = 0.1250 0.1875 0.0000 (  6118 PWs)   bands (ev):

   -10.8637  -7.0462  -5.3207  -4.2650  -3.0007  -1.6331  -0.6412   0.3050
     0.9236   1.3158

          k = 0.1250 0.2500 0.0000 (  6118 PWs)   bands (ev):

   -10.6158  -6.8015  -6.1640  -4.0310  -2.7687  -2.4401  -0.4437   0.1998
     0.5348   1.5341

          k = 0.1250 0.3125 0.0000 (  6109 PWs)   bands (ev):

   -10.2976  -6.9501  -6.4877  -3.7379  -3.1913  -2.4719  -0.5392  -0.2479
     0.8285   0.9291

          k = 0.1250 0.3750 0.0000 (  6081 PWs)   bands (ev):

    -9.9095  -7.6742  -6.1054  -3.9241  -3.3408  -2.1112  -1.2259  -0.2862
     0.6586   1.1840

          k = 0.1250 0.4375 0.0000 (  6083 PWs)   bands (ev):

    -9.4523  -8.3337  -5.6558  -4.5603  -2.9146  -1.8526  -1.6903  -0.7120
     0.8917   1.5968

          k = 0.1250-0.5000 0.0000 (  6074 PWs)   bands (ev):

    -8.9267  -8.9267  -5.1399  -5.1399  -2.4159  -2.4159  -1.2162  -1.2162
     1.3255   1.3255

          k = 0.1875 0.1875 0.0000 (  6117 PWs)   bands (ev):

   -10.6866  -6.8715  -5.1511  -5.1511  -2.8355  -1.4745  -1.4745   0.1523
     1.4790   1.4790

          k = 0.1875 0.2500 0.0000 (  6108 PWs)   bands (ev):

   -10.4390  -6.6272  -5.9930  -4.9143  -2.6051  -2.2782  -1.2598  -0.6441
     1.7057   1.7325

          k = 0.1875 0.3125 0.0000 (  6091 PWs)   bands (ev):

   -10.1211  -6.7780  -6.3142  -4.6117  -3.0329  -2.3111  -1.3937  -1.0017
     1.0481   1.9945

          k = 0.1875 0.3750 0.0000 (  6080 PWs)   bands (ev):

    -9.7336  -7.5012  -5.9329  -4.2534  -3.7217  -2.0860  -1.9563  -0.7543
     0.4847   1.6602

          k = 0.1875 0.4375 0.0000 (  6078 PWs)   bands (ev):

    -9.2770  -8.1598  -5.4850  -4.4028  -3.7768  -2.7169  -1.5483  -0.7493
     0.2854   1.0710

          k = 0.1875-0.5000 0.0000 (  6098 PWs)   bands (ev):

    -8.7521  -8.7521  -4.9720  -4.9720  -3.2840  -3.2840  -1.1105  -1.1105
     0.5768   0.5768

          k = 0.2500 0.2500 0.0000 (  6089 PWs)   bands (ev):

   -10.1917  -6.3838  -5.7542  -5.7542  -2.3777  -2.0544  -2.0544  -1.4520
     1.9736   1.9736

          k = 0.2500 0.3125 0.0000 (  6094 PWs)   bands (ev):

    -9.8745  -6.5375  -6.0720  -5.4482  -2.8046  -2.2080  -2.0898  -1.7735
     1.2619   1.5543

          k = 0.2500 0.3750 0.0000 (  6088 PWs)   bands (ev):

    -9.4877  -7.2593  -5.6926  -5.0764  -3.5000  -2.9050  -1.7484  -1.4507
     0.6222   0.9039

          k = 0.2500 0.4375 0.0000 (  6088 PWs)   bands (ev):

    -9.0319  -7.9167  -5.2477  -4.6522  -4.1227  -3.5388  -1.3771  -1.1427
     0.1205   0.3475

          k = 0.2500-0.5000 0.0000 (  6098 PWs)   bands (ev):

    -8.5079  -8.5079  -4.7470  -4.7470  -4.0985  -4.0985  -1.0815  -1.0815
    -0.0078  -0.0078

          k = 0.3125 0.3125 0.0000 (  6098 PWs)   bands (ev):

    -9.5580  -6.2291  -6.2291  -5.7620  -2.9685  -2.5135  -2.5135  -1.8152
     0.8465   1.5476

          k = 0.3125 0.3750 0.0000 (  6092 PWs)   bands (ev):

    -9.1721  -6.9489  -5.8535  -5.3862  -3.6680  -3.2040  -2.1656  -1.5108
     0.2287   0.8858

          k = 0.3125 0.4375 0.0000 (  6088 PWs)   bands (ev):

    -8.7174  -7.6049  -5.4129  -4.9544  -4.2939  -3.8360  -1.7761  -1.2811
    -0.1902   0.3059

          k = 0.3125-0.5000 0.0000 (  6082 PWs)   bands (ev):

    -8.1947  -8.1947  -4.9219  -4.9219  -4.3912  -4.3912  -1.4040  -1.4040
    -0.1304  -0.1304

          k = 0.3750 0.3750 0.0000 (  6086 PWs)   bands (ev):

    -8.7873  -6.5708  -6.5708  -5.0238  -4.3592  -2.8449  -2.8449  -1.3477
    -0.2519   1.2304

          k = 0.3750 0.4375 0.0000 (  6079 PWs)   bands (ev):

    -8.3339  -7.2246  -6.1257  -5.0576  -4.5257  -3.4720  -2.4294  -1.5351
    -0.2577   0.6293

          k = 0.3750-0.5000 0.0000 (  6084 PWs)   bands (ev):

    -7.8127  -7.8127  -5.6160  -5.6160  -4.0385  -4.0385  -1.9729  -1.9729
     0.1129   0.1129

          k = 0.4375 0.4375 0.0000 (  6100 PWs)   bands (ev):

    -7.8822  -6.7769  -6.7769  -5.6841  -4.1062  -3.0451  -3.0451  -2.0387
     0.0480   1.0370

          k = 0.4375-0.5000 0.0000 (  6110 PWs)   bands (ev):

    -7.3629  -7.3629  -6.2625  -6.2625  -3.6068  -3.6068  -2.5619  -2.5619
     0.4994   0.4994

          k =-0.5000-0.5000 0.0000 (  6124 PWs)   bands (ev):

    -6.8456  -6.8456  -6.8456  -6.8456  -3.1120  -3.1120  -3.1120  -3.1120
     0.9719   0.9719

     the Fermi energy is    -1.8540 ev

!    total energy              =     -49.71123594 Ry
     Harris-Foulkes estimate   =     -49.71123594 Ry
     estimated scf accuracy    <          1.8E-09 Ry

     The total energy is the sum of the following terms:

     one-electron contribution =    -113.46449728 Ry
     hartree contribution      =      58.39660035 Ry
     xc contribution           =     -39.65417595 Ry
     ewald contribution        =      45.01087987 Ry
     smearing contrib. (-TS)   =      -0.00004293 Ry

     convergence has been achieved in   3 iterations

     Forces acting on atoms (Ry/au):

     atom    1 type  1   force =     0.00000000    0.00000000   -0.00000372
     atom    2 type  1   force =     0.00000000    0.00000000   -0.00000374
     atom    3 type  1   force =     0.00000000    0.00000000    0.00000373
     atom    4 type  1   force =     0.00000000    0.00000000    0.00000373

     Total force =     0.000007     Total SCF correction =     0.000028
     SCF correction compared to forces is large: reduce conv_thr to get better values


     entering subroutine stress ...

          total   stress  (Ry/bohr**3)                   (kbar)     P=  -13.94
  -0.00013804   0.00000000   0.00000000        -20.31      0.00      0.00
   0.00000000  -0.00013804   0.00000000          0.00    -20.31      0.00
   0.00000000   0.00000000  -0.00000822          0.00      0.00     -1.21


     bfgs converged in   7 scf cycles and   6 bfgs steps
     (criteria: energy <  1.0E-04, force <  1.0E-03)

     End of BFGS Geometry Optimization

     Final energy   =     -49.7112359396 Ry
Begin final coordinates

ATOMIC_POSITIONS (crystal)
Al       0.000000000   0.000000000  -0.002156251
Al       0.500000000   0.500000000  -0.002156248
Al       0.500000000   0.000000000   0.102156249
Al       0.000000000   0.500000000   0.102156249
End final coordinates



     Writing output data file Al_100_1_4.save

     init_run     :      4.50s CPU      5.53s WALL (       1 calls)
     electrons    :    422.93s CPU    532.50s WALL (       7 calls)
     update_pot   :      1.80s CPU      1.90s WALL (       6 calls)
     forces       :      6.94s CPU      7.32s WALL (       7 calls)
     stress       :     18.64s CPU     19.25s WALL (       7 calls)

     Called by init_run:
     wfcinit      :      3.93s CPU      4.92s WALL (       1 calls)
     potinit      :      0.16s CPU      0.18s WALL (       1 calls)

     Called by electrons:
     c_bands      :    293.28s CPU    370.78s WALL (      52 calls)
     sum_band     :     59.02s CPU     75.99s WALL (      52 calls)
     v_of_rho     :      6.04s CPU      6.56s WALL (      57 calls)
     newd         :      3.59s CPU      3.70s WALL (      57 calls)
     mix_rho      :     61.42s CPU     75.91s WALL (      52 calls)

     Called by c_bands:
     init_us_2    :      6.75s CPU      8.33s WALL (    5355 calls)
     cegterg      :    287.90s CPU    364.12s WALL (    2340 calls)

     Called by *egterg:
     h_psi        :    238.41s CPU    305.74s WALL (    6504 calls)
     s_psi        :      8.90s CPU     11.20s WALL (    6504 calls)
     g_psi        :      0.89s CPU      1.07s WALL (    4119 calls)
     cdiaghg      :      1.38s CPU      1.66s WALL (    6099 calls)

     Called by h_psi:
     add_vuspsi   :      9.58s CPU     11.17s WALL (    6504 calls)

     General routines
     calbec       :     16.17s CPU     18.97s WALL (    9474 calls)
     fft          :      5.44s CPU      6.30s WALL (    1073 calls)
     ffts         :     36.79s CPU     46.92s WALL (   16328 calls)
     fftw         :    247.19s CPU    319.93s WALL (  135172 calls)
     interpolate  :      0.87s CPU      1.03s WALL (     109 calls)
     davcio       :      0.00s CPU      0.03s WALL (      45 calls)

     Parallel routines
     fft_scatter  :     12.39s CPU     16.83s WALL (  152573 calls)

     PWSCF        :  7m36.00s CPU     9m27.80s WALL


   This run was terminated on:  19:52:53  27May2020            

=------------------------------------------------------------------------------=
   JOB DONE.
=------------------------------------------------------------------------------=
