--------------------------------------------------------------------------
[[19107,1],0]: A high-performance Open MPI point-to-point messaging module
was unable to find any relevant network interfaces:

Module: OpenFabrics (openib)
  Host: ubuntu

Another transport will be used instead, although this may result in
lower performance.
--------------------------------------------------------------------------

     Program PWSCF v.5.1 starts on 28May2020 at 11:56:28 

     This program is part of the open-source Quantum ESPRESSO suite
     for quantum simulation of materials; please cite
         "P. Giannozzi et al., J. Phys.:Condens. Matter 21 395502 (2009);
          URL http://www.quantum-espresso.org", 
     in publications or presentations arising from this work. More details at
     http://www.quantum-espresso.org/quote

     Parallel version (MPI), running on     1 processors
     Reading input from Al_100_bulk_15.pw.in

     Current dimensions of program PWSCF are:
     Max number of different atomic species (ntypx) = 10
     Max number of k-points (npk) =  40000
     Max angular momentum in pseudopotentials (lmaxx) =  3

     Subspace diagonalization in iterative solution of the eigenvalue problem:
     a serial algorithm will be used

     Found symmetry operation: I + ( -0.5000 -0.5000  0.0000)
     This is a supercell, fractional translations are disabled

     G-vector sticks info
     --------------------
     sticks:   dense  smooth     PW     G-vecs:    dense   smooth      PW
     Sum         681     553    177               122579    87935   15005



     bravais-lattice index     =            6
     lattice parameter (alat)  =       7.6050  a.u.
     unit-cell volume          =    3958.5867 (a.u.)^3
     number of atoms/cell      =           20
     number of atomic types    =            1
     number of electrons       =        60.00
     number of Kohn-Sham states=           36
     kinetic-energy cutoff     =      30.0000  Ry
     charge density cutoff     =     150.0000  Ry
     convergence threshold     =      1.0E-06
     mixing beta               =       0.3000
     number of iterations used =            8  local-TF  mixing
     Exchange-correlation      =  SLA  PW   PBE  PBE ( 1  4  3  4 0)
     nstep                     =           50


     celldm(1)=   7.605000  celldm(2)=   0.000000  celldm(3)=   9.000000
     celldm(4)=   0.000000  celldm(5)=   0.000000  celldm(6)=   0.000000

     crystal axes: (cart. coord. in units of alat)
               a(1) = (   1.000000   0.000000   0.000000 )  
               a(2) = (   0.000000   1.000000   0.000000 )  
               a(3) = (   0.000000   0.000000   9.000000 )  

     reciprocal axes: (cart. coord. in units 2 pi/alat)
               b(1) = (  1.000000  0.000000  0.000000 )  
               b(2) = (  0.000000  1.000000  0.000000 )  
               b(3) = (  0.000000  0.000000  0.111111 )  


     PseudoPot. # 1 for Al read from file:
     ./Al.pbe-n-van.UPF
     MD5 check sum: b11ded24487aef5bc42d5c7a2e22a7b6
     Pseudo is Ultrasoft + core correction, Zval =  3.0
     Generated by new atomic code, or converted to UPF format
     Using radial grid of  893 points,  2 beta functions with: 
                l(1) =   0
                l(2) =   1
     Q(r) pseudized with  8 coefficients,  rinner =    0.900   0.900   0.900


     atomic species   valence    mass     pseudopotential
        Al             3.00    26.98000     Al( 1.00)

      8 Sym. Ops. (no inversion) found



   Cartesian axes

     site n.     atom                  positions (alat units)
         1           Al  tau(   1) = (   0.0000000   0.0000000   0.0000000  )
         2           Al  tau(   2) = (   0.5000000   0.5000000   0.0000000  )
         3           Al  tau(   3) = (   0.5000000   0.0000000   0.5000000  )
         4           Al  tau(   4) = (   0.0000000   0.5000000   0.5000000  )
         5           Al  tau(   5) = (   0.0000000   0.0000000   1.0000000  )
         6           Al  tau(   6) = (   0.5000000   0.5000000   1.0000000  )
         7           Al  tau(   7) = (   0.5000000   0.0000000   1.5000000  )
         8           Al  tau(   8) = (   0.0000000   0.5000000   1.5000000  )
         9           Al  tau(   9) = (   0.0000000   0.0000000   2.0000000  )
        10           Al  tau(  10) = (   0.5000000   0.5000000   2.0000000  )
        11           Al  tau(  11) = (   0.5000000   0.0000000   2.5000000  )
        12           Al  tau(  12) = (   0.0000000   0.5000000   2.5000000  )
        13           Al  tau(  13) = (   0.0000000   0.0000000   3.0000000  )
        14           Al  tau(  14) = (   0.5000000   0.5000000   3.0000000  )
        15           Al  tau(  15) = (   0.5000000   0.0000000   3.5000000  )
        16           Al  tau(  16) = (   0.0000000   0.5000000   3.5000000  )
        17           Al  tau(  17) = (   0.0000000   0.0000000   4.0000000  )
        18           Al  tau(  18) = (   0.5000000   0.5000000   4.0000000  )
        19           Al  tau(  19) = (   0.5000000   0.0000000   4.5000000  )
        20           Al  tau(  20) = (   0.0000000   0.5000000   4.5000000  )

     number of k points=    45  Marzari-Vanderbilt smearing, width (Ry)=  0.0250
                       cart. coord. in units 2pi/alat
        k(    1) = (   0.0000000   0.0000000   0.0000000), wk =   0.0078125
        k(    2) = (   0.0000000   0.0625000   0.0000000), wk =   0.0312500
        k(    3) = (   0.0000000   0.1250000   0.0000000), wk =   0.0312500
        k(    4) = (   0.0000000   0.1875000   0.0000000), wk =   0.0312500
        k(    5) = (   0.0000000   0.2500000   0.0000000), wk =   0.0312500
        k(    6) = (   0.0000000   0.3125000   0.0000000), wk =   0.0312500
        k(    7) = (   0.0000000   0.3750000   0.0000000), wk =   0.0312500
        k(    8) = (   0.0000000   0.4375000   0.0000000), wk =   0.0312500
        k(    9) = (   0.0000000  -0.5000000   0.0000000), wk =   0.0156250
        k(   10) = (   0.0625000   0.0625000   0.0000000), wk =   0.0312500
        k(   11) = (   0.0625000   0.1250000   0.0000000), wk =   0.0625000
        k(   12) = (   0.0625000   0.1875000   0.0000000), wk =   0.0625000
        k(   13) = (   0.0625000   0.2500000   0.0000000), wk =   0.0625000
        k(   14) = (   0.0625000   0.3125000   0.0000000), wk =   0.0625000
        k(   15) = (   0.0625000   0.3750000   0.0000000), wk =   0.0625000
        k(   16) = (   0.0625000   0.4375000   0.0000000), wk =   0.0625000
        k(   17) = (   0.0625000  -0.5000000   0.0000000), wk =   0.0312500
        k(   18) = (   0.1250000   0.1250000   0.0000000), wk =   0.0312500
        k(   19) = (   0.1250000   0.1875000   0.0000000), wk =   0.0625000
        k(   20) = (   0.1250000   0.2500000   0.0000000), wk =   0.0625000
        k(   21) = (   0.1250000   0.3125000   0.0000000), wk =   0.0625000
        k(   22) = (   0.1250000   0.3750000   0.0000000), wk =   0.0625000
        k(   23) = (   0.1250000   0.4375000   0.0000000), wk =   0.0625000
        k(   24) = (   0.1250000  -0.5000000   0.0000000), wk =   0.0312500
        k(   25) = (   0.1875000   0.1875000   0.0000000), wk =   0.0312500
        k(   26) = (   0.1875000   0.2500000   0.0000000), wk =   0.0625000
        k(   27) = (   0.1875000   0.3125000   0.0000000), wk =   0.0625000
        k(   28) = (   0.1875000   0.3750000   0.0000000), wk =   0.0625000
        k(   29) = (   0.1875000   0.4375000   0.0000000), wk =   0.0625000
        k(   30) = (   0.1875000  -0.5000000   0.0000000), wk =   0.0312500
        k(   31) = (   0.2500000   0.2500000   0.0000000), wk =   0.0312500
        k(   32) = (   0.2500000   0.3125000   0.0000000), wk =   0.0625000
        k(   33) = (   0.2500000   0.3750000   0.0000000), wk =   0.0625000
        k(   34) = (   0.2500000   0.4375000   0.0000000), wk =   0.0625000
        k(   35) = (   0.2500000  -0.5000000   0.0000000), wk =   0.0312500
        k(   36) = (   0.3125000   0.3125000   0.0000000), wk =   0.0312500
        k(   37) = (   0.3125000   0.3750000   0.0000000), wk =   0.0625000
        k(   38) = (   0.3125000   0.4375000   0.0000000), wk =   0.0625000
        k(   39) = (   0.3125000  -0.5000000   0.0000000), wk =   0.0312500
        k(   40) = (   0.3750000   0.3750000   0.0000000), wk =   0.0312500
        k(   41) = (   0.3750000   0.4375000   0.0000000), wk =   0.0625000
        k(   42) = (   0.3750000  -0.5000000   0.0000000), wk =   0.0312500
        k(   43) = (   0.4375000   0.4375000   0.0000000), wk =   0.0312500
        k(   44) = (   0.4375000  -0.5000000   0.0000000), wk =   0.0312500
        k(   45) = (  -0.5000000  -0.5000000   0.0000000), wk =   0.0078125

     Dense  grid:   122579 G-vectors     FFT dimensions: (  30,  30, 270)

     Smooth grid:    87935 G-vectors     FFT dimensions: (  27,  27, 240)

     Largest allocated arrays     est. size (Mb)     dimensions
        Kohn-Sham Wavefunctions         6.07 Mb     (   11047,   36)
        NL pseudopotentials            13.49 Mb     (   11047,   80)
        Each V/rho on FFT grid          3.71 Mb     (  243000)
        Each G-vector array             0.94 Mb     (  122579)
        G-vector shells                 0.03 Mb     (    4575)
     Largest temporary arrays     est. size (Mb)     dimensions
        Auxiliary wavefunctions        24.27 Mb     (   11047,  144)
        Each subspace H/S matrix        0.32 Mb     (     144,  144)
        Each <psi_i|beta_j> matrix      0.04 Mb     (      80,   36)
        Arrays for rho mixing          29.66 Mb     (  243000,    8)

     Initial potential from superposition of free atoms

     starting charge   59.95069, renormalised to   60.00000

     negative rho (up, down):  4.883E-05 0.000E+00
     Starting wfc are   80 randomized atomic wfcs

     total cpu time spent up to now is       66.1 secs

     per-process dynamical memory:   345.8 Mb

     Self-consistent Calculation

     iteration #  1     ecut=    30.00 Ry     beta=0.30
     Davidson diagonalization with overlap
     ethr =  1.00E-02,  avg # of iterations =  2.7

     total cpu time spent up to now is      174.0 secs

     total energy              =    -249.24626348 Ry
     Harris-Foulkes estimate   =    -249.29795590 Ry
     estimated scf accuracy    <       1.80747575 Ry

     iteration #  2     ecut=    30.00 Ry     beta=0.30
     Davidson diagonalization with overlap
     ethr =  3.01E-03,  avg # of iterations =  1.0

     total cpu time spent up to now is      242.0 secs

     total energy              =    -249.08256114 Ry
     Harris-Foulkes estimate   =    -249.26137630 Ry
     estimated scf accuracy    <       1.32323958 Ry

     iteration #  3     ecut=    30.00 Ry     beta=0.30
     Davidson diagonalization with overlap
     ethr =  2.21E-03,  avg # of iterations =  2.0

     total cpu time spent up to now is      314.1 secs

     total energy              =    -249.15908703 Ry
     Harris-Foulkes estimate   =    -249.19070990 Ry
     estimated scf accuracy    <       0.25269858 Ry

     iteration #  4     ecut=    30.00 Ry     beta=0.30
     Davidson diagonalization with overlap
     ethr =  4.21E-04,  avg # of iterations =  2.4

     total cpu time spent up to now is      393.9 secs

     total energy              =    -249.17391675 Ry
     Harris-Foulkes estimate   =    -249.17482355 Ry
     estimated scf accuracy    <       0.02091899 Ry

     iteration #  5     ecut=    30.00 Ry     beta=0.30
     Davidson diagonalization with overlap
     ethr =  3.49E-05,  avg # of iterations =  4.2

     total cpu time spent up to now is      476.9 secs

     total energy              =    -249.17001285 Ry
     Harris-Foulkes estimate   =    -249.17534370 Ry
     estimated scf accuracy    <       0.02770406 Ry

     iteration #  6     ecut=    30.00 Ry     beta=0.30
     Davidson diagonalization with overlap
     ethr =  3.49E-05,  avg # of iterations =  1.3

     total cpu time spent up to now is      546.6 secs

     total energy              =    -249.17093847 Ry
     Harris-Foulkes estimate   =    -249.17098612 Ry
     estimated scf accuracy    <       0.03605889 Ry

     iteration #  7     ecut=    30.00 Ry     beta=0.30
     Davidson diagonalization with overlap
     ethr =  3.49E-05,  avg # of iterations =  2.2

     negative rho (up, down):  2.192E-03 0.000E+00

     total cpu time spent up to now is      618.5 secs

     total energy              =    -249.16371069 Ry
     Harris-Foulkes estimate   =    -249.17182086 Ry
     estimated scf accuracy    <       0.09196309 Ry

     iteration #  8     ecut=    30.00 Ry     beta=0.30
     Davidson diagonalization with overlap
     ethr =  3.49E-05,  avg # of iterations =  3.3

     negative rho (up, down):  1.097E-02 0.000E+00

     total cpu time spent up to now is      701.0 secs

     total energy              =    -249.16821840 Ry
     Harris-Foulkes estimate   =    -249.16844369 Ry
     estimated scf accuracy    <       0.01084095 Ry

     iteration #  9     ecut=    30.00 Ry     beta=0.30
     Davidson diagonalization with overlap
     ethr =  1.81E-05,  avg # of iterations =  1.1

     negative rho (up, down):  1.533E-02 0.000E+00

     total cpu time spent up to now is      769.6 secs

     total energy              =    -249.16743932 Ry
     Harris-Foulkes estimate   =    -249.16834451 Ry
     estimated scf accuracy    <       0.01447767 Ry

     iteration # 10     ecut=    30.00 Ry     beta=0.30
     Davidson diagonalization with overlap
     ethr =  1.81E-05,  avg # of iterations =  2.4

     negative rho (up, down):  1.708E-02 0.000E+00

     total cpu time spent up to now is      844.6 secs

     total energy              =    -249.16724077 Ry
     Harris-Foulkes estimate   =    -249.16840223 Ry
     estimated scf accuracy    <       0.01834010 Ry

     iteration # 11     ecut=    30.00 Ry     beta=0.30
     Davidson diagonalization with overlap
     ethr =  1.81E-05,  avg # of iterations =  1.0

     negative rho (up, down):  6.594E-03 0.000E+00

     total cpu time spent up to now is      914.3 secs

     total energy              =    -249.16607307 Ry
     Harris-Foulkes estimate   =    -249.16747693 Ry
     estimated scf accuracy    <       0.00727070 Ry

     iteration # 12     ecut=    30.00 Ry     beta=0.30
     Davidson diagonalization with overlap
     ethr =  1.21E-05,  avg # of iterations =  3.0

     negative rho (up, down):  4.780E-03 0.000E+00

     total cpu time spent up to now is     1005.0 secs

     total energy              =    -249.16790051 Ry
     Harris-Foulkes estimate   =    -249.16761264 Ry
     estimated scf accuracy    <       0.01023051 Ry

     iteration # 13     ecut=    30.00 Ry     beta=0.30
     Davidson diagonalization with overlap
     ethr =  1.21E-05,  avg # of iterations =  1.0

     negative rho (up, down):  2.009E-03 0.000E+00

     total cpu time spent up to now is     1074.9 secs

     total energy              =    -249.16604405 Ry
     Harris-Foulkes estimate   =    -249.16797623 Ry
     estimated scf accuracy    <       0.01693372 Ry

     iteration # 14     ecut=    30.00 Ry     beta=0.30
     Davidson diagonalization with overlap
     ethr =  1.21E-05,  avg # of iterations =  2.4

     negative rho (up, down):  1.520E-03 0.000E+00

     total cpu time spent up to now is     1158.1 secs

     total energy              =    -249.16720132 Ry
     Harris-Foulkes estimate   =    -249.16722053 Ry
     estimated scf accuracy    <       0.00088258 Ry

     iteration # 15     ecut=    30.00 Ry     beta=0.30
     Davidson diagonalization with overlap
     ethr =  1.47E-06,  avg # of iterations =  2.0

     negative rho (up, down):  1.234E-03 0.000E+00

     total cpu time spent up to now is     1228.6 secs

     total energy              =    -249.16723300 Ry
     Harris-Foulkes estimate   =    -249.16721721 Ry
     estimated scf accuracy    <       0.00095943 Ry

     iteration # 16     ecut=    30.00 Ry     beta=0.30
     Davidson diagonalization with overlap
     ethr =  1.47E-06,  avg # of iterations =  1.0

     negative rho (up, down):  2.638E-04 0.000E+00

     total cpu time spent up to now is     1299.1 secs

     total energy              =    -249.16711982 Ry
     Harris-Foulkes estimate   =    -249.16723647 Ry
     estimated scf accuracy    <       0.00124613 Ry

     iteration # 17     ecut=    30.00 Ry     beta=0.30
     Davidson diagonalization with overlap
     ethr =  1.47E-06,  avg # of iterations =  1.0

     negative rho (up, down):  9.016E-05 0.000E+00

     total cpu time spent up to now is     1367.9 secs

     total energy              =    -249.16713472 Ry
     Harris-Foulkes estimate   =    -249.16715204 Ry
     estimated scf accuracy    <       0.00011756 Ry

     iteration # 18     ecut=    30.00 Ry     beta=0.30
     Davidson diagonalization with overlap
     ethr =  1.96E-07,  avg # of iterations =  2.4

     negative rho (up, down):  1.095E-04 0.000E+00

     total cpu time spent up to now is     1447.4 secs

     total energy              =    -249.16714691 Ry
     Harris-Foulkes estimate   =    -249.16714670 Ry
     estimated scf accuracy    <       0.00000608 Ry

     iteration # 19     ecut=    30.00 Ry     beta=0.30
     Davidson diagonalization with overlap
     ethr =  1.01E-08,  avg # of iterations =  2.6

     negative rho (up, down):  1.701E-04 0.000E+00

     total cpu time spent up to now is     1523.7 secs

     total energy              =    -249.16714801 Ry
     Harris-Foulkes estimate   =    -249.16714720 Ry
     estimated scf accuracy    <       0.00000907 Ry

     iteration # 20     ecut=    30.00 Ry     beta=0.30
     Davidson diagonalization with overlap
     ethr =  1.01E-08,  avg # of iterations =  1.2

     negative rho (up, down):  1.416E-04 0.000E+00

     total cpu time spent up to now is     1597.3 secs

     total energy              =    -249.16714815 Ry
     Harris-Foulkes estimate   =    -249.16714820 Ry
     estimated scf accuracy    <       0.00002111 Ry

     iteration # 21     ecut=    30.00 Ry     beta=0.30
     Davidson diagonalization with overlap
     ethr =  1.01E-08,  avg # of iterations =  1.0

     negative rho (up, down):  1.486E-04 0.000E+00

     total cpu time spent up to now is     1667.1 secs

     total energy              =    -249.16714845 Ry
     Harris-Foulkes estimate   =    -249.16714820 Ry
     estimated scf accuracy    <       0.00002511 Ry

     iteration # 22     ecut=    30.00 Ry     beta=0.30
     Davidson diagonalization with overlap
     ethr =  1.01E-08,  avg # of iterations =  1.0

     negative rho (up, down):  1.487E-04 0.000E+00

     total cpu time spent up to now is     1738.7 secs

     total energy              =    -249.16714798 Ry
     Harris-Foulkes estimate   =    -249.16714847 Ry
     estimated scf accuracy    <       0.00002977 Ry

     iteration # 23     ecut=    30.00 Ry     beta=0.30
     Davidson diagonalization with overlap
     ethr =  1.01E-08,  avg # of iterations =  1.0

     negative rho (up, down):  1.072E-04 0.000E+00

     total cpu time spent up to now is     1809.1 secs

     total energy              =    -249.16714493 Ry
     Harris-Foulkes estimate   =    -249.16714800 Ry
     estimated scf accuracy    <       0.00002521 Ry

     iteration # 24     ecut=    30.00 Ry     beta=0.30
     Davidson diagonalization with overlap
     ethr =  1.01E-08,  avg # of iterations =  2.6

     negative rho (up, down):  9.028E-05 0.000E+00

     total cpu time spent up to now is     1893.6 secs

     total energy              =    -249.16714657 Ry
     Harris-Foulkes estimate   =    -249.16714663 Ry
     estimated scf accuracy    <       0.00000131 Ry

     iteration # 25     ecut=    30.00 Ry     beta=0.30
     Davidson diagonalization with overlap
     ethr =  2.19E-09,  avg # of iterations =  1.0

     negative rho (up, down):  8.706E-05 0.000E+00

     total cpu time spent up to now is     1965.0 secs

     total energy              =    -249.16714648 Ry
     Harris-Foulkes estimate   =    -249.16714659 Ry
     estimated scf accuracy    <       0.00000126 Ry

     iteration # 26     ecut=    30.00 Ry     beta=0.30
     Davidson diagonalization with overlap
     ethr =  2.10E-09,  avg # of iterations =  1.0

     total cpu time spent up to now is     2034.3 secs

     End of self-consistent calculation

          k = 0.0000 0.0000 0.0000 ( 11047 PWs)   bands (ev):

    -8.5684  -8.3054  -7.8825  -7.2959  -6.5461  -5.6472  -4.6083  -3.4325
    -2.1293  -0.6318  -0.2806  -0.2806  -0.0388  -0.0388   0.1703   0.3498
     0.3498   0.8908   0.8908   1.0793   1.0793   1.3301   1.3301   1.5866
     1.5866   1.7288   1.7288   2.2629   2.2629   2.2926   2.4258   2.4258
     3.0645   3.0645   3.4031   3.4031

          k = 0.0000 0.0625 0.0000 ( 11033 PWs)   bands (ev):

    -8.5326  -8.2697  -7.8470  -7.2604  -6.5108  -5.6121  -4.5734  -3.3977
    -2.0946  -0.8537  -0.6074  -0.5972  -0.2479  -0.2116  -0.0062   0.2035
     0.3375   0.3827   0.9238   1.0362   1.1139   1.3685   1.6195   1.7132
     1.7171   1.9231   1.9810   2.2565   2.3258   2.4094   2.4589   2.7962
     2.9285   3.2317   3.4362   3.5539

          k = 0.0000 0.1250 0.0000 ( 11039 PWs)   bands (ev):

    -8.4253  -8.1626  -7.7401  -7.1540  -6.4048  -5.5067  -4.4686  -3.2936
    -1.9916  -1.7593  -1.5089  -1.1071  -0.5501  -0.4950  -0.1497   0.0921
     0.1608   0.3029   0.4812   1.0030   1.0224   1.2189   1.4563   1.7182
     1.8875   1.9813   2.4252   2.5342   2.5575   2.8015   3.0239   3.1662
     3.2107   3.4070   3.5346   4.0333

          k = 0.0000 0.1875 0.0000 ( 11041 PWs)   bands (ev):

    -8.2465  -7.9842  -7.5622  -6.9767  -6.2284  -5.3313  -4.2943  -3.1204
    -2.6598  -2.4063  -2.0004  -1.8200  -1.4377  -0.7189  -0.3245   0.0143
     0.1405   0.2566   0.4682   0.6455   1.1151   1.1865   1.3827   1.6611
     1.8823   1.9626   2.4234   2.5891   2.6757   2.7216   3.3686   3.5581
     3.6987   3.9975   4.1182   4.1822

          k = 0.0000 0.2500 0.0000 ( 11029 PWs)   bands (ev):

    -7.9968  -7.7348  -7.3135  -6.7290  -5.9818  -5.0860  -4.0506  -3.5116
    -3.2568  -2.8786  -2.8476  -2.2803  -1.5804  -1.5553  -0.6873  -0.0864
     0.2446   0.3115   0.4866   0.7001   0.8756   1.3995   1.4165   1.6469
     1.8573   2.1121   2.3786   2.7860   2.8156   2.9128   2.9510   3.6025
     3.9278   4.2140   4.3268   4.4221

          k = 0.0000 0.3125 0.0000 ( 10979 PWs)   bands (ev):

    -7.6762  -7.4147  -6.9942  -6.4109  -5.6652  -4.7711  -4.3040  -4.0481
    -3.7373  -3.6367  -3.0658  -2.5675  -2.3363  -1.4621  -1.2724  -0.4536
     0.2188   0.5398   0.6796   0.7819   0.9975   1.1707   1.7120   1.8362
     1.9170   2.3600   2.4079   2.6600   3.0961   3.2109   3.2467   3.4544
     3.6947   3.9367   3.9563   4.1219

          k = 0.0000 0.3750 0.0000 ( 10950 PWs)   bands (ev):

    -7.2852  -7.0244  -6.6050  -6.0232  -5.2793  -5.0337  -4.7766  -4.3874
    -4.3632  -3.7894  -3.3561  -3.0561  -2.1891  -2.1772  -1.1621  -0.8979
    -0.0165   0.5892   0.9016   1.1437   1.2357   1.3607   1.5326   2.0739
     2.2069   2.6341   2.7696   2.8639   3.0045   3.0263   3.2465   3.4017
     3.4258   3.6080   3.6191   3.6352

          k = 0.0000 0.4375 0.0000 ( 10974 PWs)   bands (ev):

    -6.8248  -6.5647  -6.1465  -5.6980  -5.5664  -5.4397  -5.0247  -4.8246
    -4.4486  -3.9351  -3.7119  -2.9068  -2.8287  -1.8086  -1.7437  -0.6557
    -0.4572   0.6150   1.0227   1.3284   1.5706   1.7888   1.9598   2.0281
     2.3800   2.5011   2.6222   2.8302   2.8401   3.0110   3.0584   3.1964
     3.4582   3.5504   3.5521   4.0347

          k = 0.0000-0.5000 0.0000 ( 10974 PWs)   bands (ev):

    -6.2954  -6.2954  -6.0361  -6.0361  -5.6194  -5.6194  -5.0411  -5.0411
    -4.3017  -4.3017  -3.4151  -3.4151  -2.3905  -2.3905  -1.2319  -1.2319
     0.0481   0.0481   1.5130   1.5130   1.8212   1.8212   2.0634   2.0634
     2.2807   2.2807   2.4525   2.4525   2.9937   2.9937   3.2401   3.2401
     3.5365   3.5366   3.6887   3.6887

          k = 0.0625 0.0625 0.0000 ( 11047 PWs)   bands (ev):

    -8.4968  -8.2340  -7.8113  -7.2250  -6.4755  -5.5770  -4.5385  -3.3631
    -2.0603  -0.8204  -0.8204  -0.5742  -0.5742  -0.5631  -0.1787  -0.1787
     0.2366   0.3699   0.3699   1.0767   1.0767   1.7448   1.7448   1.9204
     1.9204   1.9911   1.9911   2.3588   2.4013   2.4013   2.8123   2.8123
     3.0615   3.0615   3.7063   3.7063

          k = 0.0625 0.1250 0.0000 ( 11040 PWs)   bands (ev):

    -8.3895  -8.1269  -7.7045  -7.1186  -6.3695  -5.4716  -4.4337  -3.2587
    -1.9572  -1.7252  -1.4754  -1.0739  -0.7205  -0.5178  -0.4740  -0.4609
    -0.0779   0.1857   0.3358   0.4846   1.0208   1.2176   1.8467   1.9761
     2.0312   2.1621   2.4574   2.4797   2.8320   2.9644   3.0915   3.1137
     3.2404   3.4636   3.7231   3.9895

          k = 0.0625 0.1875 0.0000 ( 11046 PWs)   bands (ev):

    -8.2109  -7.9485  -7.5267  -6.9414  -6.1931  -5.2962  -4.2594  -3.0856
    -2.6253  -2.3724  -1.9668  -1.7856  -1.4042  -0.6871  -0.5533  -0.3064
    -0.2905   0.0619   0.2042   0.5012   0.6350   1.1847   1.3557   2.0005
     2.1969   2.2649   2.2659   2.6193   2.7741   3.1786   3.2643   3.6019
     3.9454   4.0283   4.1342   4.2769

          k = 0.0625 0.2500 0.0000 ( 11029 PWs)   bands (ev):

    -7.9611  -7.6992  -7.2780  -6.6936  -5.9466  -5.0510  -4.0157  -3.4770
    -3.2222  -2.8438  -2.8131  -2.2462  -1.5462  -1.5218  -0.6559  -0.3194
    -0.0780  -0.0528   0.3240   0.3462   0.7330   0.8918   1.4801   1.5889
     2.2486   2.3934   2.4476   2.8369   2.8872   2.9601   3.4068   3.5015
     3.9642   4.0851   4.1279   4.3280

          k = 0.0625 0.3125 0.0000 ( 10965 PWs)   bands (ev):

    -7.6406  -7.3791  -6.9588  -6.3756  -5.6301  -4.7362  -4.2692  -4.0133
    -3.7027  -3.6020  -3.0313  -2.5333  -2.3020  -1.4286  -1.2387  -0.4232
    -0.0208   0.2299   0.2518   0.5765   0.7781   1.0305   1.1831   1.8844
     1.9616   2.5192   2.7317   2.8811   2.9945   3.2538   3.3431   3.4014
     3.4880   3.7515   3.7957   3.8044

          k = 0.0625 0.3750 0.0000 ( 10961 PWs)   bands (ev):

    -7.2498  -6.9890  -6.5697  -5.9880  -5.2442  -4.9988  -4.7417  -4.3525
    -4.3285  -3.7549  -3.3215  -3.0216  -2.1550  -2.1428  -1.1285  -0.8642
     0.0113   0.3491   0.5855   0.6208   1.0033   1.2990   1.3934   1.5472
     2.2446   2.4635   2.6248   2.7197   3.0853   3.0966   3.1143   3.2179
     3.5034   3.5238   3.6178   3.6618

          k = 0.0625 0.4375 0.0000 ( 10967 PWs)   bands (ev):

    -6.7894  -6.5294  -6.1113  -5.6629  -5.5313  -5.4047  -4.9897  -4.7897
    -4.4139  -3.9004  -3.6773  -2.8724  -2.7944  -1.7747  -1.7097  -0.6229
    -0.4242   0.6313   0.7750   1.0471   1.0566   1.4315   1.8199   1.8578
     1.9773   2.0967   2.1154   2.4893   2.6852   2.8651   3.0372   3.3861
     3.5342   3.6430   3.7238   3.8479

          k = 0.0625-0.5000 0.0000 ( 10986 PWs)   bands (ev):

    -6.2601  -6.2601  -6.0010  -6.0010  -5.5843  -5.5843  -5.0062  -5.0062
    -4.2669  -4.2669  -3.3804  -3.3804  -2.3563  -2.3563  -1.1984  -1.1984
     0.0796   0.0796   1.2404   1.2404   1.5361   1.5361   1.6013   1.6013
     1.9278   1.9278   2.3068   2.3068   2.4818   2.4818   3.1771   3.1771
     3.7741   3.7741   4.0226   4.0226

          k = 0.1250 0.1250 0.0000 ( 11037 PWs)   bands (ev):

    -8.2823  -8.0198  -7.5978  -7.0122  -6.2637  -5.3663  -4.3291  -3.1550
    -1.8544  -1.6237  -1.6237  -1.3742  -1.3742  -0.9735  -0.9735  -0.4186
    -0.4186  -0.3588   0.3024   0.3024   0.4349   1.1703   1.1703   2.1464
     2.1464   2.5528   2.9228   2.9228   3.1643   3.1643   3.2409   3.2409
     3.6605   3.6605   4.1370   4.1372

          k = 0.1250 0.1875 0.0000 ( 11030 PWs)   bands (ev):

    -8.1038  -7.8416  -7.4201  -6.8351  -6.0874  -5.1911  -4.1549  -2.9821
    -2.5222  -2.2699  -1.8650  -1.6831  -1.4548  -1.3041  -1.2056  -0.8042
    -0.5959  -0.2299  -0.1890   0.2536   0.5134   0.6004   1.2783   1.3449
     2.2892   2.4335   2.7030   3.0981   3.2679   3.4291   3.7859   3.7874
     3.9333   3.9887   4.1333   4.3184

          k = 0.1250 0.2500 0.0000 ( 11008 PWs)   bands (ev):

    -7.8542  -7.5925  -7.1715  -6.5876  -5.8410  -4.9460  -3.9114  -3.3731
    -3.1184  -2.7403  -2.7103  -2.1441  -1.4436  -1.4223  -1.2178  -0.9679
    -0.6276  -0.4894  -0.0180   0.0481   0.4790   0.7175   0.8319   1.5674
     1.5936   2.5577   2.8060   2.8168   3.2513   3.2877   3.3061   3.6413
     3.6895   3.6996   4.0157   4.2413

          k = 0.1250 0.3125 0.0000 ( 10981 PWs)   bands (ev):

    -7.5340  -7.2727  -6.8526  -6.2698  -5.5248  -4.6315  -4.1651  -3.9093
    -3.5988  -3.4982  -2.9280  -2.4303  -2.1996  -1.3294  -1.1368  -0.9130
    -0.6726  -0.3157  -0.2621   0.3160   0.3503   0.8374   1.0192   1.1288
     1.8540   2.1062   2.2811   2.5480   2.8433   2.9459   3.3208   3.4098
     3.4976   3.8225   3.9187   3.9351

          k = 0.1250 0.3750 0.0000 ( 10969 PWs)   bands (ev):

    -7.1434  -6.8828  -6.4638  -5.8825  -5.1392  -4.8941  -4.6371  -4.2480
    -4.2240  -3.6508  -3.2178  -2.9181  -2.0525  -2.0407  -1.0305  -0.7635
    -0.5451  -0.2903   0.0191   0.2267   0.6759   0.7102   1.3829   1.4000
     1.4899   1.6194   1.8596   2.2381   2.2552   2.8073   2.8214   3.2605
     3.4943   3.5798   3.6731   4.0268

          k = 0.1250 0.4375 0.0000 ( 10969 PWs)   bands (ev):

    -6.6834  -6.4235  -6.0057  -5.5577  -5.4261  -5.2996  -4.8849  -4.6849
    -4.3093  -3.7963  -3.5732  -2.7692  -2.6910  -1.6728  -1.6077  -0.5283
    -0.3259  -0.1037   0.1304   0.5624   0.7821   0.8994   1.1102   1.2315
     1.2391   1.6256   1.8088   1.9120   2.1836   2.2455   2.6481   2.8840
     2.9957   3.6653   3.7361   4.0465

          k = 0.1250-0.5000 0.0000 ( 10954 PWs)   bands (ev):

    -6.1545  -6.1545  -5.8955  -5.8955  -5.4792  -5.4792  -4.9015  -4.9015
    -4.1626  -4.1626  -3.2767  -3.2767  -2.2534  -2.2534  -1.0977  -1.0977
     0.1616   0.1616   0.3899   0.3899   0.6837   0.6837   1.0600   1.0600
     1.6091   1.6091   1.6782   1.6782   2.3255   2.3255   2.4069   2.4069
     3.1818   3.1818   4.1402   4.1402

          k = 0.1875 0.1875 0.0000 ( 11009 PWs)   bands (ev):

    -7.9255  -7.6636  -7.2425  -6.6582  -5.9113  -5.0159  -3.9808  -2.8092
    -2.3512  -2.3512  -2.0995  -2.0995  -1.6956  -1.6956  -1.5121  -1.1364
    -1.1364  -0.4077  -0.4077  -0.0199   0.4674   0.4674   0.7657   1.4554
     1.4554   2.5800   2.5800   2.7409   3.2068   3.2383   3.6526   3.8045
     3.8045   4.1939   4.2796   4.2797

          k = 0.1875 0.2500 0.0000 ( 11000 PWs)   bands (ev):

    -7.6763  -7.4148  -6.9943  -6.4109  -5.6652  -4.7711  -3.7375  -3.2002
    -2.9464  -2.5679  -2.5392  -2.1124  -1.9748  -1.8610  -1.4566  -1.2733
    -1.2623  -0.8773  -0.4033  -0.1326   0.2144   0.6241   0.7093   0.9964
     1.6521   1.8071   2.1699   2.4404   2.7756   2.8398   3.0637   3.2017
     3.3927   4.0014   4.1027   4.3733

          k = 0.1875 0.3125 0.0000 ( 10987 PWs)   bands (ev):

    -7.3564  -7.0954  -6.6758  -6.0936  -5.3493  -4.4570  -3.9916  -3.7359
    -3.4254  -3.3254  -2.7565  -2.2584  -2.0312  -1.8053  -1.5535  -1.2228
    -1.0808  -0.9676  -0.5967  -0.1203   0.1428   0.5072   0.9981   1.0032
     1.2912   1.4474   1.6885   1.9949   2.0853   2.2589   2.6390   3.1279
     3.3245   3.4979   3.6802   4.1909

          k = 0.1875 0.3750 0.0000 ( 10952 PWs)   bands (ev):

    -6.9663  -6.7060  -6.2874  -5.7067  -4.9643  -4.7197  -4.4629  -4.0740
    -4.0503  -3.4779  -3.0450  -2.7465  -1.8814  -1.8723  -1.4304  -1.1894
    -0.8522  -0.7749  -0.5969  -0.1942   0.3041   0.5145   0.6486   0.9832
     0.9938   1.3488   1.3892   1.5901   1.6477   1.9495   2.3453   2.6523
     3.0544   3.4340   3.5073   3.8344

          k = 0.1875 0.4375 0.0000 ( 10952 PWs)   bands (ev):

    -6.5068  -6.2472  -5.8299  -5.3825  -5.2508  -5.1248  -4.7105  -4.5105
    -4.1356  -3.6228  -3.4005  -2.5970  -2.5198  -1.5060  -1.4384  -0.9926
    -0.7364  -0.4380  -0.2306  -0.1751   0.0806   0.2358   0.3769   0.7554
     0.9361   0.9464   1.3066   1.3479   1.8059   2.0271   2.0772   2.3793
     2.8395   2.8871   3.1236   3.8495

          k = 0.1875-0.5000 0.0000 ( 10962 PWs)   bands (ev):

    -5.9785  -5.9785  -5.7198  -5.7198  -5.3039  -5.3039  -4.7269  -4.7269
    -3.9889  -3.9889  -3.1042  -3.1042  -2.0829  -2.0829  -0.9346  -0.9346
    -0.4815  -0.4815  -0.2473  -0.2473   0.1885   0.1885   0.3823   0.3823
     0.7396   0.7396   1.4390   1.4390   1.8574   1.8574   2.2784   2.2784
     2.6084   2.6084   3.3072   3.3072

          k = 0.2500 0.2500 0.0000 ( 10971 PWs)   bands (ev):

    -7.4273  -7.1662  -6.7464  -6.1640  -5.4194  -4.5268  -3.4947  -2.9594
    -2.9594  -2.7062  -2.7062  -2.3271  -2.2999  -2.2999  -1.7375  -1.7375
    -1.0357  -1.0042  -1.0042  -0.1271  -0.1271   0.4394   0.8674   0.8674
     1.2255   1.3875   1.6287   2.0012   2.0012   2.0260   2.5803   3.2563
     3.2563   3.2650   3.4368   4.1329

          k = 0.2500 0.3125 0.0000 ( 10980 PWs)   bands (ev):

    -7.1081  -6.8474  -6.4285  -5.8473  -5.1041  -4.2131  -3.7489  -3.4939
    -3.1833  -3.0846  -2.6508  -2.5176  -2.3978  -2.0186  -1.9911  -1.8012
    -1.4091  -0.9349  -0.7327  -0.6663   0.0895   0.1853   0.5204   0.8524
     0.8697   1.1261   1.2658   1.2864   1.5152   1.8272   2.2574   2.5308
     2.5535   3.3872   3.4990   3.6992

          k = 0.2500 0.3750 0.0000 ( 10944 PWs)   bands (ev):

    -6.7187  -6.4587  -6.0409  -5.4610  -4.7197  -4.4758  -4.2194  -3.8309
    -3.8075  -3.2364  -2.8037  -2.5081  -2.2730  -2.0203  -1.6916  -1.6432
    -1.5501  -1.0576  -0.5930  -0.3773  -0.3181  -0.1105   0.1858   0.5364
     0.5411   0.5654   1.1179   1.1473   1.5424   1.7992   1.8402   1.8792
     2.6804   2.7021   3.2423   3.6653

          k = 0.2500 0.4375 0.0000 ( 10976 PWs)   bands (ev):

    -6.2600  -6.0007  -5.5840  -5.1376  -5.0060  -4.8802  -4.4666  -4.2668
    -3.8926  -3.3806  -3.1592  -2.3572  -2.2821  -1.8286  -1.5867  -1.2577
    -1.2061  -1.1700  -0.7411  -0.5894  -0.5063  -0.1007  -0.0698   0.1125
     0.1235   0.4832   0.9577   1.1831   1.1942   1.5925   1.9592   2.0232
     2.3478   2.6687   3.0481   3.0583

          k = 0.2500-0.5000 0.0000 ( 10962 PWs)   bands (ev):

    -5.7326  -5.7326  -5.4743  -5.4742  -5.0590  -5.0590  -4.4828  -4.4828
    -3.7461  -3.7461  -2.8634  -2.8634  -1.8467  -1.8467  -1.3213  -1.3213
    -1.0642  -1.0642  -0.7678  -0.7678  -0.5656  -0.5656  -0.0894  -0.0894
     0.6013   0.6013   0.6236   0.6236   1.4858   1.4858   2.0496   2.0496
     2.5244   2.5244   2.7947   2.7947

          k = 0.3125 0.3125 0.0000 ( 10986 PWs)   bands (ev):

    -6.7894  -6.5293  -6.1112  -5.5312  -4.7896  -3.9004  -3.4374  -3.4374
    -3.1835  -3.1835  -2.8728  -2.7758  -2.7758  -2.2109  -2.2109  -1.7116
    -1.4743  -1.4743  -0.5965  -0.5965  -0.4450  -0.1753   0.1210   0.4025
     0.4025   0.5011   1.0540   1.0797   1.5413   1.5413   1.7771   1.8125
     2.6398   2.8036   2.8036   3.6032

          k = 0.3125 0.3750 0.0000 ( 10964 PWs)   bands (ev):

    -6.4009  -6.1415  -5.7245  -5.1458  -4.4058  -4.1628  -3.9071  -3.5189
    -3.4965  -3.0588  -2.9275  -2.8047  -2.4946  -2.3967  -2.2081  -1.8136
    -1.3421  -1.3362  -1.0728  -0.8721  -0.6367  -0.3152  -0.2129  -0.2005
    -0.0229   0.3534   0.7262   0.8907   1.0537   1.4591   1.8623   1.8945
     2.1622   2.2172   2.9318   3.1093

          k = 0.3125 0.4375 0.0000 ( 10952 PWs)   bands (ev):

    -5.9432  -5.6845  -5.2687  -4.8233  -4.6917  -4.5663  -4.1536  -3.9540
    -3.5813  -3.0703  -2.8509  -2.6112  -2.3573  -2.0519  -2.0289  -1.8891
    -1.5206  -1.3907  -1.2629  -0.9667  -0.9336  -0.7690  -0.6519  -0.2873
     0.2003   0.2101   0.3989   0.4270   1.2143   1.2912   1.4671   1.8497
     2.3325   2.3557   2.5972   2.9162

          k = 0.3125-0.5000 0.0000 ( 10950 PWs)   bands (ev):

    -5.4170  -5.4170  -5.1592  -5.1592  -4.7447  -4.7447  -4.1698  -4.1698
    -3.4351  -3.4351  -2.5562  -2.5562  -2.0971  -2.0971  -1.8542  -1.8542
    -1.5291  -1.5291  -1.4365  -1.4365  -0.8564  -0.8564  -0.3720  -0.3720
    -0.1405  -0.1405   0.6938   0.6938   0.9283   0.9283   1.6985   1.6985
     2.4061   2.4061   2.7881   2.7881

          k = 0.3750 0.3750 0.0000 ( 10962 PWs)   bands (ev):

    -6.0134  -5.7547  -5.3388  -4.7615  -4.0234  -3.7811  -3.7811  -3.5267
    -3.5267  -3.1392  -3.1176  -3.1176  -2.5509  -2.5509  -2.1204  -1.8124
    -1.8124  -1.5870  -1.3292  -1.0330  -0.9345  -0.9345  -0.8371  -0.3535
     0.0680   0.0680   0.3313   0.3614   1.2100   1.2100   1.2262   1.7829
     2.2678   2.4761   2.4761   2.5314

          k = 0.3750 0.4375 0.0000 ( 10953 PWs)   bands (ev):

    -5.5570  -5.2989  -4.8841  -4.4399  -4.3086  -4.1838  -3.7725  -3.5732
    -3.3323  -3.2023  -3.0777  -2.6935  -2.6687  -2.4809  -2.2321  -2.0850
    -1.9886  -1.6653  -1.6049  -1.5704  -1.3461  -0.9910  -0.5870  -0.5082
    -0.4802  -0.2736   0.4579   0.5608   0.6249   0.7947   1.5671   1.5974
     1.8989   2.2738   2.6578   2.8474

          k = 0.3750-0.5000 0.0000 ( 10952 PWs)   bands (ev):

    -5.0323  -5.0323  -4.7750  -4.7750  -4.3616  -4.3616  -3.7885  -3.7885
    -3.0573  -3.0573  -2.8150  -2.8150  -2.5605  -2.5605  -2.2319  -2.2319
    -2.0937  -2.0937  -1.5918  -1.5918  -1.1389  -1.1389  -0.8538  -0.8538
    -0.0021  -0.0021   0.0101   0.0101   1.0162   1.0162   1.2668   1.2668
     2.1593   2.1593   2.7183   2.7183

          k = 0.4375 0.4375 0.0000 ( 10986 PWs)   bands (ev):

    -5.1020  -4.8446  -4.4310  -3.9884  -3.9884  -3.8577  -3.7332  -3.7332
    -3.3233  -3.3233  -3.1262  -2.8833  -2.7556  -2.7556  -2.6288  -2.2998
    -2.1622  -2.0164  -2.0164  -1.6591  -1.2074  -1.1387  -1.1387  -0.9218
    -0.1339  -0.1339  -0.0696  -0.0574   0.9497   1.0100   1.0100   1.1998
     2.0940   2.2781   2.2781   2.6520

          k = 0.4375-0.5000 0.0000 ( 10998 PWs)   bands (ev):

    -4.5789  -4.5789  -4.3224  -4.3224  -3.9107  -3.9107  -3.4695  -3.4695
    -3.3399  -3.3399  -3.2148  -3.2148  -2.8055  -2.8055  -2.6174  -2.6174
    -2.2213  -2.2213  -1.7398  -1.7398  -1.4836  -1.4836  -0.7233  -0.7233
    -0.6147  -0.6147   0.3231   0.3232   0.4917   0.4917   1.4640   1.4640
     1.7665   1.7666   2.7154   2.7154

          k =-0.5000-0.5000 0.0000 ( 10956 PWs)   bands (ev):

    -4.0576  -4.0576  -4.0576  -4.0576  -3.8021  -3.8021  -3.8021  -3.8021
    -3.3920  -3.3920  -3.3920  -3.3920  -2.8239  -2.8239  -2.8239  -2.8239
    -2.0841  -2.0841  -2.0841  -2.0841  -1.2068  -1.2068  -1.2068  -1.2068
    -0.2013  -0.2013  -0.2013  -0.2013   0.9433   0.9433   0.9433   0.9433
     2.2122   2.2122   2.2122   2.2122

     the Fermi energy is     2.6054 ev

!    total energy              =    -249.16714616 Ry
     Harris-Foulkes estimate   =    -249.16714651 Ry
     estimated scf accuracy    <       0.00000027 Ry

     The total energy is the sum of the following terms:

     one-electron contribution =   -1701.96040066 Ry
     hartree contribution      =     869.01427396 Ry
     xc contribution           =    -200.26104137 Ry
     ewald contribution        =     784.04069261 Ry
     smearing contrib. (-TS)   =      -0.00067070 Ry

     convergence has been achieved in  26 iterations

     Forces acting on atoms (Ry/au):

     atom    1 type  1   force =     0.00000000    0.00000000   -0.00371968
     atom    2 type  1   force =     0.00000000    0.00000000   -0.00371962
     atom    3 type  1   force =     0.00000000    0.00000000    0.00219627
     atom    4 type  1   force =     0.00000000    0.00000000    0.00219627
     atom    5 type  1   force =     0.00000000    0.00000000    0.00082874
     atom    6 type  1   force =     0.00000000    0.00000000    0.00082875
     atom    7 type  1   force =     0.00000000    0.00000000    0.00094444
     atom    8 type  1   force =     0.00000000    0.00000000    0.00094444
     atom    9 type  1   force =     0.00000000    0.00000000    0.00028332
     atom   10 type  1   force =     0.00000000    0.00000000    0.00028336
     atom   11 type  1   force =     0.00000000    0.00000000   -0.00028357
     atom   12 type  1   force =     0.00000000    0.00000000   -0.00028357
     atom   13 type  1   force =     0.00000000    0.00000000   -0.00094425
     atom   14 type  1   force =     0.00000000    0.00000000   -0.00094422
     atom   15 type  1   force =     0.00000000    0.00000000   -0.00082854
     atom   16 type  1   force =     0.00000000    0.00000000   -0.00082854
     atom   17 type  1   force =     0.00000000    0.00000000   -0.00219659
     atom   18 type  1   force =     0.00000000    0.00000000   -0.00219680
     atom   19 type  1   force =     0.00000000    0.00000000    0.00371989
     atom   20 type  1   force =     0.00000000    0.00000000    0.00371989

     Total force =     0.009016     Total SCF correction =     0.000897


     entering subroutine stress ...

          total   stress  (Ry/bohr**3)                   (kbar)     P=   -7.35
  -0.00007211   0.00000000   0.00000000        -10.61      0.00      0.00
   0.00000000  -0.00007211   0.00000000          0.00    -10.61      0.00
   0.00000000   0.00000000  -0.00000565          0.00      0.00     -0.83


     BFGS Geometry Optimization

     number of scf cycles    =   1
     number of bfgs steps    =   0

     energy   new            =    -249.1671461612 Ry

     new trust radius        =       0.0037198934 bohr
     new conv_thr            =       0.0000010000 Ry


ATOMIC_POSITIONS (crystal)
Al       0.000000000   0.000000000  -0.000054346
Al       0.500000000   0.500000000  -0.000054345
Al       0.500000000   0.000000000   0.055587644
Al       0.000000000   0.500000000   0.055587644
Al       0.000000000   0.000000000   0.111123219
Al       0.500000000   0.500000000   0.111123219
Al       0.500000000   0.000000000   0.166680465
Al       0.000000000   0.500000000   0.166680465
Al       0.000000000   0.000000000   0.222226362
Al       0.500000000   0.500000000   0.222226362
Al       0.500000000   0.000000000   0.277773635
Al       0.000000000   0.500000000   0.277773635
Al       0.000000000   0.000000000   0.333319538
Al       0.500000000   0.500000000   0.333319538
Al       0.500000000   0.000000000   0.388876784
Al       0.000000000   0.500000000   0.388876784
Al       0.000000000   0.000000000   0.444412352
Al       0.500000000   0.500000000   0.444412349
Al       0.500000000   0.000000000   0.500054349
Al       0.000000000   0.500000000   0.500054349



     Writing output data file Al_100_5_4.save
     NEW-OLD atomic charge density approx. for the potential

     total cpu time spent up to now is     2072.1 secs

     per-process dynamical memory:   368.8 Mb

     Self-consistent Calculation

     iteration #  1     ecut=    30.00 Ry     beta=0.30
     Davidson diagonalization with overlap
     ethr =  1.00E-06,  avg # of iterations =  2.2

     total cpu time spent up to now is     2163.6 secs

     total energy              =    -249.16722784 Ry
     Harris-Foulkes estimate   =    -249.16723248 Ry
     estimated scf accuracy    <       0.00033913 Ry

     iteration #  2     ecut=    30.00 Ry     beta=0.30
     Davidson diagonalization with overlap
     ethr =  5.65E-07,  avg # of iterations =  1.0

     total cpu time spent up to now is     2231.8 secs

     total energy              =    -249.16721246 Ry
     Harris-Foulkes estimate   =    -249.16722970 Ry
     estimated scf accuracy    <       0.00022911 Ry

     iteration #  3     ecut=    30.00 Ry     beta=0.30
     Davidson diagonalization with overlap
     ethr =  3.82E-07,  avg # of iterations =  1.8

     total cpu time spent up to now is     2301.4 secs

     total energy              =    -249.16722291 Ry
     Harris-Foulkes estimate   =    -249.16722470 Ry
     estimated scf accuracy    <       0.00004300 Ry

     iteration #  4     ecut=    30.00 Ry     beta=0.30
     Davidson diagonalization with overlap
     ethr =  7.17E-08,  avg # of iterations =  1.3

     total cpu time spent up to now is     2369.3 secs

     total energy              =    -249.16722366 Ry
     Harris-Foulkes estimate   =    -249.16722386 Ry
     estimated scf accuracy    <       0.00000772 Ry

     iteration #  5     ecut=    30.00 Ry     beta=0.30
     Davidson diagonalization with overlap
     ethr =  1.29E-08,  avg # of iterations =  1.7

     total cpu time spent up to now is     2437.9 secs

     total energy              =    -249.16722359 Ry
     Harris-Foulkes estimate   =    -249.16722378 Ry
     estimated scf accuracy    <       0.00000242 Ry

     iteration #  6     ecut=    30.00 Ry     beta=0.30
     Davidson diagonalization with overlap
     ethr =  4.03E-09,  avg # of iterations =  2.4

     total cpu time spent up to now is     2508.9 secs

     End of self-consistent calculation

          k = 0.0000 0.0000 0.0000 ( 11047 PWs)   bands (ev):

    -8.5705  -8.3065  -7.8824  -7.2947  -6.5451  -5.6482  -4.6108  -3.4353
    -2.1321  -0.6351  -0.2828  -0.2828  -0.0398  -0.0398   0.1671   0.3501
     0.3501   0.8923   0.8923   1.0772   1.0772   1.3291   1.3291   1.5880
     1.5880   1.7287   1.7287   2.2631   2.2631   2.2901   2.4250   2.4250
     3.0666   3.0666   3.4005   3.4005

          k = 0.0000 0.0625 0.0000 ( 11033 PWs)   bands (ev):

    -8.5348  -8.2708  -7.8468  -7.2592  -6.5098  -5.6131  -4.5759  -3.4006
    -2.0974  -0.8559  -0.6085  -0.6005  -0.2501  -0.2113  -0.0072   0.2003
     0.3389   0.3830   0.9254   1.0374   1.1117   1.3674   1.6210   1.7110
     1.7165   1.9234   1.9796   2.2578   2.3234   2.4088   2.4582   2.7960
     2.9260   3.2338   3.4336   3.5558

          k = 0.0000 0.1250 0.0000 ( 11039 PWs)   bands (ev):

    -8.4274  -8.1636  -7.7400  -7.1528  -6.4039  -5.5077  -4.4711  -3.2965
    -1.9944  -1.7614  -1.5100  -1.1069  -0.5488  -0.4983  -0.1519   0.0911
     0.1619   0.2996   0.4815   1.0020   1.0239   1.2168   1.4549   1.7196
     1.8878   1.9800   2.4228   2.5344   2.5567   2.7993   3.0229   3.1640
     3.2099   3.4064   3.5320   4.0334

          k = 0.0000 0.1875 0.0000 ( 11041 PWs)   bands (ev):

    -8.2487  -7.9852  -7.5621  -6.9755  -6.2274  -5.3323  -4.2967  -3.1233
    -2.6620  -2.4074  -2.0003  -1.8228  -1.4364  -0.7178  -0.3278   0.0122
     0.1396   0.2555   0.4649   0.6458   1.1127   1.1880   1.3804   1.6602
     1.8838   1.9623   2.4210   2.5867   2.6764   2.7208   3.3692   3.5552
     3.6961   3.9954   4.1143   4.1809

          k = 0.0000 0.2500 0.0000 ( 11029 PWs)   bands (ev):

    -7.9989  -7.7358  -7.3133  -6.7277  -5.9808  -5.0870  -4.0531  -3.5137
    -3.2578  -2.8815  -2.8475  -2.2791  -1.5832  -1.5542  -0.6882  -0.0897
     0.2424   0.3091   0.4856   0.6969   0.8759   1.3967   1.4181   1.6450
     1.8563   2.1136   2.3784   2.7833   2.8132   2.9137   2.9502   3.6029
     3.9251   4.2112   4.3231   4.4209

          k = 0.0000 0.3125 0.0000 ( 10979 PWs)   bands (ev):

    -7.6784  -7.4158  -6.9941  -6.4097  -5.6642  -4.7721  -4.3062  -4.0492
    -3.7398  -3.6365  -3.0646  -2.5704  -2.3353  -1.4631  -1.2752  -0.4560
     0.2154   0.5376   0.6768   0.7809   0.9943   1.1710   1.7135   1.8340
     1.9149   2.3584   2.4093   2.6600   3.0936   3.2118   3.2459   3.4513
     3.6925   3.9356   3.9569   4.1190

          k = 0.0000 0.3750 0.0000 ( 10950 PWs)   bands (ev):

    -7.2874  -7.0255  -6.6049  -6.0220  -5.2783  -5.0359  -4.7776  -4.3884
    -4.3630  -3.7882  -3.3586  -3.0551  -2.1920  -2.1781  -1.1645  -0.9006
    -0.0194   0.5859   0.8994   1.1427   1.2330   1.3575   1.5329   2.0755
     2.2046   2.6330   2.7710   2.8608   3.0023   3.0264   3.2455   3.3992
     3.4233   3.6073   3.6196   3.6355

          k = 0.0000 0.4375 0.0000 ( 10974 PWs)   bands (ev):

    -6.8269  -6.5657  -6.1464  -5.7002  -5.5652  -5.4408  -5.0245  -4.8236
    -4.4474  -3.9360  -3.7109  -2.9092  -2.8297  -1.8111  -1.7465  -0.6585
    -0.4599   0.6123   1.0195   1.3262   1.5696   1.7857   1.9602   2.0250
     2.3778   2.5027   2.6211   2.8273   2.8378   3.0113   3.0572   3.1978
     3.4583   3.5479   3.5536   4.0339

          k = 0.0000-0.5000 0.0000 ( 10974 PWs)   bands (ev):

    -6.2975  -6.2975  -6.0372  -6.0372  -5.6193  -5.6193  -5.0399  -5.0399
    -4.3007  -4.3007  -3.4161  -3.4161  -2.3929  -2.3929  -1.2347  -1.2347
     0.0454   0.0454   1.5098   1.5098   1.8191   1.8191   2.0624   2.0624
     2.2776   2.2776   2.4528   2.4528   2.9953   2.9953   3.2378   3.2378
     3.5355   3.5355   3.6901   3.6901

          k = 0.0625 0.0625 0.0000 ( 11047 PWs)   bands (ev):

    -8.4990  -8.2350  -7.8112  -7.2238  -6.4745  -5.5780  -4.5410  -3.3659
    -2.0631  -0.8226  -0.8226  -0.5752  -0.5752  -0.5664  -0.1785  -0.1785
     0.2334   0.3713   0.3713   1.0780   1.0780   1.7427   1.7427   1.9194
     1.9194   1.9900   1.9900   2.3563   2.4017   2.4017   2.8117   2.8117
     3.0602   3.0602   3.7080   3.7080

          k = 0.0625 0.1250 0.0000 ( 11040 PWs)   bands (ev):

    -8.3917  -8.1279  -7.7044  -7.1174  -6.3686  -5.4726  -4.4362  -3.2616
    -1.9599  -1.7273  -1.4765  -1.0737  -0.7226  -0.5165  -0.4751  -0.4642
    -0.0777   0.1867   0.3326   0.4862   1.0206   1.2182   1.8445   1.9737
     2.0305   2.1613   2.4550   2.4800   2.8298   2.9619   3.0923   3.1126
     3.2377   3.4634   3.7233   3.9857

          k = 0.0625 0.1875 0.0000 ( 11046 PWs)   bands (ev):

    -8.2130  -7.9496  -7.5265  -6.9402  -6.1922  -5.2972  -4.2618  -3.0885
    -2.6275  -2.3734  -1.9666  -1.7884  -1.4029  -0.6860  -0.5555  -0.3075
    -0.2939   0.0616   0.2039   0.4980   0.6365   1.1823   1.3569   1.9981
     2.1961   2.2629   2.2649   2.6168   2.7736   3.1762   3.2653   3.5991
     3.9460   4.0260   4.1305   4.2744

          k = 0.0625 0.2500 0.0000 ( 11029 PWs)   bands (ev):

    -7.9633  -7.7002  -7.2778  -6.6924  -5.9456  -5.0520  -4.0181  -3.4792
    -3.2232  -2.8467  -2.8130  -2.2450  -1.5489  -1.5207  -0.6568  -0.3216
    -0.0792  -0.0561   0.3243   0.3440   0.7298   0.8930   1.4773   1.5901
     2.2465   2.3922   2.4466   2.8345   2.8849   2.9601   3.4044   3.5025
     3.9620   4.0837   4.1270   4.3268

          k = 0.0625 0.3125 0.0000 ( 10965 PWs)   bands (ev):

    -7.6427  -7.3802  -6.9587  -6.3744  -5.6291  -4.7372  -4.2714  -4.0144
    -3.7051  -3.6018  -3.0301  -2.5362  -2.3010  -1.4295  -1.2415  -0.4256
    -0.0230   0.2289   0.2485   0.5762   0.7759   1.0273   1.1845   1.8856
     1.9590   2.5170   2.7308   2.8800   2.9921   3.2539   3.3409   3.4004
     3.4850   3.7490   3.7966   3.8047

          k = 0.0625 0.3750 0.0000 ( 10961 PWs)   bands (ev):

    -7.2519  -6.9901  -6.5696  -5.9868  -5.2433  -5.0010  -4.7428  -4.3534
    -4.3283  -3.7537  -3.3239  -3.0206  -2.1578  -2.1438  -1.1309  -0.8670
     0.0085   0.3470   0.5845   0.6175   1.0035   1.2963   1.3902   1.5486
     2.2458   2.4613   2.6221   2.7187   3.0844   3.0940   3.1146   3.2169
     3.5004   3.5214   3.6179   3.6633

          k = 0.0625 0.4375 0.0000 ( 10967 PWs)   bands (ev):

    -6.7916  -6.5304  -6.1111  -5.6651  -5.5301  -5.4058  -4.9896  -4.7887
    -4.4126  -3.9014  -3.6763  -2.8748  -2.7953  -1.7771  -1.7125  -0.6257
    -0.4270   0.6287   0.7728   1.0438   1.0554   1.4318   1.8168   1.8556
     1.9787   2.0956   2.1122   2.4895   2.6865   2.8621   3.0387   3.3838
     3.5334   3.6420   3.7246   3.8460

          k = 0.0625-0.5000 0.0000 ( 10986 PWs)   bands (ev):

    -6.2623  -6.2623  -6.0020  -6.0020  -5.5842  -5.5842  -5.0050  -5.0050
    -4.2659  -4.2659  -3.3814  -3.3814  -2.3587  -2.3587  -1.2012  -1.2012
     0.0769   0.0769   1.2381   1.2381   1.5351   1.5351   1.5982   1.5982
     1.9281   1.9281   2.3038   2.3038   2.4831   2.4831   3.1784   3.1784
     3.7717   3.7717   4.0217   4.0218

          k = 0.1250 0.1250 0.0000 ( 11037 PWs)   bands (ev):

    -8.2844  -8.0209  -7.5976  -7.0110  -6.2627  -5.3673  -4.3315  -3.1578
    -1.8572  -1.6258  -1.6258  -1.3753  -1.3753  -0.9733  -0.9733  -0.4174
    -0.4174  -0.3621   0.3037   0.3037   0.4317   1.1694   1.1694   2.1440
     2.1440   2.5504   2.9205   2.9205   3.1636   3.1636   3.2386   3.2386
     3.6600   3.6600   4.1376   4.1379

          k = 0.1250 0.1875 0.0000 ( 11030 PWs)   bands (ev):

    -8.1059  -7.8427  -7.4199  -6.8339  -6.0864  -5.1921  -4.1574  -2.9849
    -2.5243  -2.2709  -1.8648  -1.6859  -1.4570  -1.3028  -1.2066  -0.8041
    -0.5950  -0.2283  -0.1923   0.2535   0.5139   0.5972   1.2759   1.3440
     2.2865   2.4310   2.7006   3.0960   3.2666   3.4263   3.7835   3.7875
     3.9312   3.9871   4.1312   4.3172

          k = 0.1250 0.2500 0.0000 ( 11008 PWs)   bands (ev):

    -7.8564  -7.5935  -7.1714  -6.5864  -5.8400  -4.9470  -3.9138  -3.3752
    -3.1195  -2.7432  -2.7101  -2.1429  -1.4464  -1.4213  -1.2200  -0.9689
    -0.6283  -0.4892  -0.0166   0.0448   0.4766   0.7186   0.8287   1.5666
     1.5908   2.5554   2.8036   2.8143   3.2491   3.2867   3.3040   3.6397
     3.6871   3.6999   4.0159   4.2425

          k = 0.1250 0.3125 0.0000 ( 10981 PWs)   bands (ev):

    -7.5361  -7.2737  -6.8525  -6.2686  -5.5238  -4.6325  -4.1673  -3.9103
    -3.6013  -3.4980  -2.9267  -2.4331  -2.1986  -1.3303  -1.1396  -0.9152
    -0.6738  -0.3178  -0.2618   0.3172   0.3470   0.8345   1.0204   1.1256
     1.8529   2.1037   2.2789   2.5469   2.8409   2.9461   3.3185   3.4072
     3.4990   3.8199   3.9177   3.9325

          k = 0.1250 0.3750 0.0000 ( 10969 PWs)   bands (ev):

    -7.1455  -6.8839  -6.4637  -5.8813  -5.1382  -4.8962  -4.6381  -4.2490
    -4.2238  -3.6496  -3.2202  -2.9171  -2.0553  -2.0417  -1.0329  -0.7663
    -0.5473  -0.2913   0.0181   0.2251   0.6772   0.7069   1.3840   1.3973
     1.4868   1.6172   1.8585   2.2373   2.2555   2.8087   2.8184   3.2580
     3.4952   3.5769   3.6712   4.0245

          k = 0.1250 0.4375 0.0000 ( 10969 PWs)   bands (ev):

    -6.6855  -6.4246  -6.0056  -5.5598  -5.4249  -5.3007  -4.8847  -4.6839
    -4.3081  -3.7973  -3.5722  -2.7716  -2.6920  -1.6753  -1.6106  -0.5311
    -0.3287  -0.1058   0.1294   0.5626   0.7794   0.8970   1.1115   1.2305
     1.2360   1.6258   1.8098   1.9089   2.1849   2.2425   2.6470   2.8853
     2.9929   3.6629   3.7353   4.0443

          k = 0.1250-0.5000 0.0000 ( 10954 PWs)   bands (ev):

    -6.1567  -6.1567  -5.8966  -5.8966  -5.4790  -5.4790  -4.9002  -4.9002
    -4.1616  -4.1616  -3.2777  -3.2777  -2.2558  -2.2558  -1.1006  -1.1006
     0.1590   0.1590   0.3878   0.3878   0.6826   0.6826   1.0602   1.0602
     1.6104   1.6104   1.6749   1.6749   2.3267   2.3267   2.4038   2.4038
     3.1809   3.1809   4.1378   4.1378

          k = 0.1875 0.1875 0.0000 ( 11009 PWs)   bands (ev):

    -7.9277  -7.6647  -7.2424  -6.6570  -5.9104  -5.0169  -3.9832  -2.8121
    -2.3533  -2.3533  -2.1005  -2.1005  -1.6954  -1.6954  -1.5149  -1.1352
    -1.1352  -0.4064  -0.4064  -0.0233   0.4664   0.4664   0.7625   1.4530
     1.4530   2.5772   2.5772   2.7384   3.2047   3.2372   3.6530   3.8019
     3.8019   4.1951   4.2774   4.2774

          k = 0.1875 0.2500 0.0000 ( 11000 PWs)   bands (ev):

    -7.6784  -7.4158  -6.9941  -6.4097  -5.6642  -4.7721  -3.7400  -3.2024
    -2.9475  -2.5707  -2.5390  -2.1145  -1.9736  -1.8621  -1.4565  -1.2761
    -1.2614  -0.8758  -0.4035  -0.1320   0.2111   0.6216   0.7084   0.9932
     1.6493   1.8047   2.1677   2.4394   2.7729   2.8400   3.0610   3.1995
     3.3941   3.9991   4.1040   4.3705

          k = 0.1875 0.3125 0.0000 ( 10987 PWs)   bands (ev):

    -7.3585  -7.0964  -6.6756  -6.0924  -5.3484  -4.4580  -3.9938  -3.7369
    -3.4279  -3.3252  -2.7553  -2.2613  -2.0302  -1.8075  -1.5546  -1.2236
    -1.0806  -0.9704  -0.5954  -0.1227   0.1438   0.5039   0.9972   1.0004
     1.2881   1.4451   1.6875   1.9925   2.0856   2.2562   2.6404   3.1252
     3.3253   3.4960   3.6774   4.1901

          k = 0.1875 0.3750 0.0000 ( 10952 PWs)   bands (ev):

    -6.9685  -6.7070  -6.2873  -5.7055  -4.9633  -4.7219  -4.4640  -4.0750
    -4.0501  -3.4766  -3.0474  -2.7455  -1.8843  -1.8733  -1.4326  -1.1906
    -0.8543  -0.7746  -0.5997  -0.1931   0.3012   0.5156   0.6462   0.9801
     0.9928   1.3476   1.3894   1.5877   1.6446   1.9507   2.3429   2.6535
     3.0514   3.4315   3.5065   3.8310

          k = 0.1875 0.4375 0.0000 ( 10952 PWs)   bands (ev):

    -6.5089  -6.2482  -5.8297  -5.3846  -5.2496  -5.1258  -4.7103  -4.5095
    -4.1343  -3.6237  -3.3995  -2.5994  -2.5208  -1.5084  -1.4412  -0.9948
    -0.7373  -0.4392  -0.2321  -0.1777   0.0785   0.2371   0.3758   0.7556
     0.9333   0.9475   1.3079   1.3447   1.8051   2.0282   2.0741   2.3762
     2.8371   2.8863   3.1207   3.8473

          k = 0.1875-0.5000 0.0000 ( 10962 PWs)   bands (ev):

    -5.9807  -5.9807  -5.7209  -5.7209  -5.3038  -5.3038  -4.7257  -4.7257
    -3.9879  -3.9879  -3.1051  -3.1051  -2.0853  -2.0853  -0.9374  -0.9374
    -0.4836  -0.4836  -0.2484  -0.2484   0.1887   0.1887   0.3795   0.3795
     0.7409   0.7409   1.4399   1.4399   1.8544   1.8544   2.2773   2.2773
     2.6056   2.6056   3.3049   3.3049

          k = 0.2500 0.2500 0.0000 ( 10971 PWs)   bands (ev):

    -7.4295  -7.1673  -6.7463  -6.1628  -5.4185  -4.5277  -3.4971  -2.9615
    -2.9615  -2.7072  -2.7072  -2.3299  -2.2997  -2.2997  -1.7363  -1.7363
    -1.0385  -1.0030  -1.0030  -0.1281  -0.1281   0.4361   0.8649   0.8649
     1.2223   1.3853   1.6277   1.9984   1.9984   2.0262   2.5817   3.2537
     3.2537   3.2657   3.4350   4.1321

          k = 0.2500 0.3125 0.0000 ( 10980 PWs)   bands (ev):

    -7.1102  -6.8485  -6.4283  -5.8461  -5.1031  -4.2141  -3.7511  -3.4949
    -3.1858  -3.0844  -2.6530  -2.5163  -2.3989  -2.0214  -1.9910  -1.8004
    -1.4076  -0.9353  -0.7355  -0.6657   0.0870   0.1845   0.5179   0.8493
     0.8686   1.1233   1.2660   1.2840   1.5121   1.8285   2.2547   2.5320
     2.5509   3.3864   3.4966   3.6969

          k = 0.2500 0.3750 0.0000 ( 10944 PWs)   bands (ev):

    -6.7208  -6.4598  -6.0407  -5.4598  -4.7187  -4.4780  -4.2205  -3.8318
    -3.8074  -3.2352  -2.8061  -2.5071  -2.2751  -2.0214  -1.6925  -1.6461
    -1.5499  -1.0563  -0.5954  -0.3800  -0.3171  -0.1127   0.1847   0.5336
     0.5402   0.5656   1.1192   1.1440   1.5401   1.7966   1.8414   1.8761
     2.6776   2.7013   3.2395   3.6630

          k = 0.2500 0.4375 0.0000 ( 10976 PWs)   bands (ev):

    -6.2621  -6.0018  -5.5839  -5.1397  -5.0048  -4.8813  -4.4664  -4.2658
    -3.8914  -3.3816  -3.1582  -2.3597  -2.2830  -1.8308  -1.5879  -1.2597
    -1.2089  -1.1698  -0.7433  -0.5882  -0.5074  -0.1036  -0.0696   0.1098
     0.1246   0.4845   0.9564   1.1840   1.1918   1.5895   1.9569   2.0221
     2.3451   2.6656   3.0456   3.0559

          k = 0.2500-0.5000 0.0000 ( 10962 PWs)   bands (ev):

    -5.7348  -5.7348  -5.4753  -5.4753  -5.0588  -5.0588  -4.4816  -4.4816
    -3.7451  -3.7451  -2.8644  -2.8644  -1.8491  -1.8491  -1.3235  -1.3235
    -1.0652  -1.0652  -0.7691  -0.7691  -0.5669  -0.5669  -0.0882  -0.0882
     0.5985   0.5985   0.6247   0.6247   1.4850   1.4850   2.0465   2.0465
     2.5220   2.5220   2.7918   2.7918

          k = 0.3125 0.3125 0.0000 ( 10986 PWs)   bands (ev):

    -6.7916  -6.5303  -6.1111  -5.5300  -4.7886  -3.9014  -3.4396  -3.4396
    -3.1846  -3.1846  -2.8753  -2.7757  -2.7757  -2.2097  -2.2097  -1.7144
    -1.4731  -1.4731  -0.5975  -0.5975  -0.4476  -0.1775   0.1199   0.4001
     0.4001   0.5013   1.0553   1.0764   1.5386   1.5386   1.7783   1.8093
     2.6389   2.8010   2.8010   3.6010

          k = 0.3125 0.3750 0.0000 ( 10964 PWs)   bands (ev):

    -6.4030  -6.1425  -5.7243  -5.1446  -4.4048  -4.1649  -3.9082  -3.5199
    -3.4963  -3.0609  -2.9263  -2.8058  -2.4971  -2.3966  -2.2072  -1.8121
    -1.3449  -1.3365  -1.0723  -0.8742  -0.6378  -0.3177  -0.2138  -0.2003
    -0.0256   0.3546   0.7234   0.8884   1.0546   1.4561   1.8596   1.8933
     2.1596   2.2144   2.9294   3.1070

          k = 0.3125 0.4375 0.0000 ( 10952 PWs)   bands (ev):

    -5.9453  -5.6855  -5.2685  -4.8254  -4.6905  -4.5674  -4.1534  -3.9531
    -3.5800  -3.0713  -2.8499  -2.6133  -2.3583  -2.0543  -2.0298  -1.8889
    -1.5228  -1.3894  -1.2639  -0.9680  -0.9360  -0.7703  -0.6509  -0.2861
     0.1974   0.2092   0.3961   0.4281   1.2120   1.2903   1.4645   1.8466
     2.3301   2.3530   2.5943   2.9134

          k = 0.3125-0.5000 0.0000 ( 10950 PWs)   bands (ev):

    -5.4192  -5.4192  -5.1602  -5.1602  -4.7446  -4.7446  -4.1686  -4.1686
    -3.4341  -3.4341  -2.5572  -2.5572  -2.0993  -2.0993  -1.8554  -1.8554
    -1.5312  -1.5312  -1.4363  -1.4363  -0.8553  -0.8553  -0.3749  -0.3749
    -0.1394  -0.1394   0.6925   0.6925   0.9260   0.9260   1.6961   1.6961
     2.4031   2.4031   2.7856   2.7856

          k = 0.3750 0.3750 0.0000 ( 10962 PWs)   bands (ev):

    -6.0156  -5.7557  -5.3386  -4.7603  -4.0224  -3.7833  -3.7833  -3.5277
    -3.5277  -3.1402  -3.1174  -3.1174  -2.5497  -2.5497  -2.1228  -1.8112
    -1.8112  -1.5892  -1.3302  -1.0344  -0.9355  -0.9355  -0.8383  -0.3523
     0.0656   0.0656   0.3286   0.3625   1.2072   1.2072   1.2254   1.7798
     2.2654   2.4735   2.4735   2.5285

          k = 0.3750 0.4375 0.0000 ( 10953 PWs)   bands (ev):

    -5.5591  -5.2999  -4.8839  -4.4420  -4.3074  -4.1849  -3.7723  -3.5722
    -3.3344  -3.2011  -3.0787  -2.6945  -2.6686  -2.4800  -2.2343  -2.0836
    -1.9898  -1.6674  -1.6054  -1.5701  -1.3455  -0.9898  -0.5895  -0.5110
    -0.4811  -0.2726   0.4551   0.5595   0.6226   0.7924   1.5647   1.5946
     1.8962   2.2708   2.6553   2.8450

          k = 0.3750-0.5000 0.0000 ( 10952 PWs)   bands (ev):

    -5.0344  -5.0344  -4.7760  -4.7760  -4.3614  -4.3614  -3.7873  -3.7873
    -3.0563  -3.0563  -2.8171  -2.8171  -2.5616  -2.5616  -2.2329  -2.2329
    -2.0935  -2.0935  -1.5905  -1.5905  -1.1413  -1.1413  -0.8528  -0.8528
    -0.0049  -0.0049   0.0092   0.0092   1.0138   1.0138   1.2642   1.2642
     2.1566   2.1566   2.7155   2.7155

          k = 0.4375 0.4375 0.0000 ( 10986 PWs)   bands (ev):

    -5.1042  -4.8457  -4.4309  -3.9906  -3.9906  -3.8564  -3.7342  -3.7342
    -3.3232  -3.3232  -3.1252  -2.8855  -2.7545  -2.7545  -2.6299  -2.3007
    -2.1620  -2.0152  -2.0152  -1.6578  -1.2098  -1.1397  -1.1397  -0.9208
    -0.1363  -0.1363  -0.0724  -0.0584   0.9474   1.0073   1.0073   1.1972
     2.0913   2.2756   2.2756   2.6492

          k = 0.4375-0.5000 0.0000 ( 10998 PWs)   bands (ev):

    -4.5810  -4.5810  -4.3234  -4.3234  -3.9105  -3.9105  -3.4716  -3.4716
    -3.3387  -3.3387  -3.2159  -3.2159  -2.8054  -2.8054  -2.6166  -2.6166
    -2.2199  -2.2199  -1.7403  -1.7403  -1.4830  -1.4830  -0.7258  -0.7258
    -0.6156  -0.6156   0.3203   0.3203   0.4893   0.4893   1.4612   1.4612
     1.7639   1.7639   2.7131   2.7131

          k =-0.5000-0.5000 0.0000 ( 10956 PWs)   bands (ev):

    -4.0597  -4.0597  -4.0597  -4.0597  -3.8031  -3.8031  -3.8031  -3.8031
    -3.3918  -3.3918  -3.3918  -3.3918  -2.8227  -2.8227  -2.8227  -2.8227
    -2.0829  -2.0829  -2.0829  -2.0829  -1.2078  -1.2078  -1.2078  -1.2078
    -0.2037  -0.2037  -0.2037  -0.2037   0.9406   0.9406   0.9406   0.9406
     2.2096   2.2096   2.2096   2.2096

     the Fermi energy is     2.6038 ev

!    total energy              =    -249.16722345 Ry
     Harris-Foulkes estimate   =    -249.16722372 Ry
     estimated scf accuracy    <       0.00000034 Ry

     The total energy is the sum of the following terms:

     one-electron contribution =   -1701.86324259 Ry
     hartree contribution      =     868.98830012 Ry
     xc contribution           =    -200.25923833 Ry
     ewald contribution        =     783.96761729 Ry
     smearing contrib. (-TS)   =      -0.00065994 Ry

     convergence has been achieved in   6 iterations

     Forces acting on atoms (Ry/au):

     atom    1 type  1   force =     0.00000000    0.00000000   -0.00340064
     atom    2 type  1   force =     0.00000000    0.00000000   -0.00340059
     atom    3 type  1   force =     0.00000000    0.00000000    0.00182880
     atom    4 type  1   force =     0.00000000    0.00000000    0.00182880
     atom    5 type  1   force =     0.00000000    0.00000000    0.00089913
     atom    6 type  1   force =     0.00000000    0.00000000    0.00089913
     atom    7 type  1   force =     0.00000000    0.00000000    0.00088555
     atom    8 type  1   force =     0.00000000    0.00000000    0.00088555
     atom    9 type  1   force =     0.00000000    0.00000000    0.00028253
     atom   10 type  1   force =     0.00000000    0.00000000    0.00028250
     atom   11 type  1   force =     0.00000000    0.00000000   -0.00028254
     atom   12 type  1   force =     0.00000000    0.00000000   -0.00028254
     atom   13 type  1   force =     0.00000000    0.00000000   -0.00088566
     atom   14 type  1   force =     0.00000000    0.00000000   -0.00088566
     atom   15 type  1   force =     0.00000000    0.00000000   -0.00089914
     atom   16 type  1   force =     0.00000000    0.00000000   -0.00089914
     atom   17 type  1   force =     0.00000000    0.00000000   -0.00182876
     atom   18 type  1   force =     0.00000000    0.00000000   -0.00182878
     atom   19 type  1   force =     0.00000000    0.00000000    0.00340073
     atom   20 type  1   force =     0.00000000    0.00000000    0.00340073

     Total force =     0.008144     Total SCF correction =     0.001031
     SCF correction compared to forces is large: reduce conv_thr to get better values


     entering subroutine stress ...

          total   stress  (Ry/bohr**3)                   (kbar)     P=   -7.42
  -0.00007256   0.00000000   0.00000000        -10.67      0.00      0.00
   0.00000000  -0.00007256   0.00000000          0.00    -10.67      0.00
   0.00000000   0.00000000  -0.00000621          0.00      0.00     -0.91


     number of scf cycles    =   2
     number of bfgs steps    =   1

     energy   old            =    -249.1671461612 Ry
     energy   new            =    -249.1672234476 Ry

     CASE: energy  _new < energy  _old


     WARNING: bfgs curvature condition failed, Theta= 0.887
     new trust radius        =       0.0040918828 bohr
     new conv_thr            =       0.0000000100 Ry


ATOMIC_POSITIONS (crystal)
Al       0.000000000   0.000000000  -0.000114127
Al       0.500000000   0.500000000  -0.000114125
Al       0.500000000   0.000000000   0.055620429
Al       0.000000000   0.500000000   0.055620429
Al       0.000000000   0.000000000   0.111138523
Al       0.500000000   0.500000000   0.111138523
Al       0.500000000   0.000000000   0.166695954
Al       0.000000000   0.500000000   0.166695954
Al       0.000000000   0.000000000   0.222231245
Al       0.500000000   0.500000000   0.222231245
Al       0.500000000   0.000000000   0.277768751
Al       0.000000000   0.500000000   0.277768751
Al       0.000000000   0.000000000   0.333304048
Al       0.500000000   0.500000000   0.333304048
Al       0.500000000   0.000000000   0.388861480
Al       0.000000000   0.500000000   0.388861480
Al       0.000000000   0.000000000   0.444379566
Al       0.500000000   0.500000000   0.444379562
Al       0.500000000   0.000000000   0.500114132
Al       0.000000000   0.500000000   0.500114132



     Writing output data file Al_100_5_4.save
     NEW-OLD atomic charge density approx. for the potential

     total cpu time spent up to now is     2544.7 secs

     per-process dynamical memory:   368.8 Mb

     Self-consistent Calculation

     iteration #  1     ecut=    30.00 Ry     beta=0.30
     Davidson diagonalization with overlap
     ethr =  1.00E-06,  avg # of iterations =  2.0

     negative rho (up, down):  1.982E-08 0.000E+00

     total cpu time spent up to now is     2627.0 secs

     total energy              =    -249.16730125 Ry
     Harris-Foulkes estimate   =    -249.16730405 Ry
     estimated scf accuracy    <       0.00020723 Ry

     iteration #  2     ecut=    30.00 Ry     beta=0.30
     Davidson diagonalization with overlap
     ethr =  3.45E-07,  avg # of iterations =  1.0

     negative rho (up, down):  2.527E-05 0.000E+00

     total cpu time spent up to now is     2697.3 secs

     total energy              =    -249.16729108 Ry
     Harris-Foulkes estimate   =    -249.16730397 Ry
     estimated scf accuracy    <       0.00015205 Ry

     iteration #  3     ecut=    30.00 Ry     beta=0.30
     Davidson diagonalization with overlap
     ethr =  2.53E-07,  avg # of iterations =  1.4

     negative rho (up, down):  1.853E-05 0.000E+00

     total cpu time spent up to now is     2767.8 secs

     total energy              =    -249.16729782 Ry
     Harris-Foulkes estimate   =    -249.16729964 Ry
     estimated scf accuracy    <       0.00002671 Ry

     iteration #  4     ecut=    30.00 Ry     beta=0.30
     Davidson diagonalization with overlap
     ethr =  4.45E-08,  avg # of iterations =  1.9

     negative rho (up, down):  2.300E-05 0.000E+00

     total cpu time spent up to now is     2839.9 secs

     total energy              =    -249.16729921 Ry
     Harris-Foulkes estimate   =    -249.16729924 Ry
     estimated scf accuracy    <       0.00000106 Ry

     iteration #  5     ecut=    30.00 Ry     beta=0.30
     Davidson diagonalization with overlap
     ethr =  1.77E-09,  avg # of iterations =  3.3

     negative rho (up, down):  4.448E-05 0.000E+00

     total cpu time spent up to now is     2919.1 secs

     total energy              =    -249.16729891 Ry
     Harris-Foulkes estimate   =    -249.16729928 Ry
     estimated scf accuracy    <       0.00000327 Ry

     iteration #  6     ecut=    30.00 Ry     beta=0.30
     Davidson diagonalization with overlap
     ethr =  1.77E-09,  avg # of iterations =  2.9

     negative rho (up, down):  3.650E-05 0.000E+00

     total cpu time spent up to now is     3000.7 secs

     total energy              =    -249.16729909 Ry
     Harris-Foulkes estimate   =    -249.16729910 Ry
     estimated scf accuracy    <       0.00000011 Ry

     iteration #  7     ecut=    30.00 Ry     beta=0.30
     Davidson diagonalization with overlap
     ethr =  1.85E-10,  avg # of iterations =  2.2

     negative rho (up, down):  1.605E-05 0.000E+00

     total cpu time spent up to now is     3080.4 secs

     total energy              =    -249.16729919 Ry
     Harris-Foulkes estimate   =    -249.16729911 Ry
     estimated scf accuracy    <       0.00000014 Ry

     iteration #  8     ecut=    30.00 Ry     beta=0.30
     Davidson diagonalization with overlap
     ethr =  1.85E-10,  avg # of iterations =  2.1

     negative rho (up, down):  1.368E-05 0.000E+00

     total cpu time spent up to now is     3162.4 secs

     total energy              =    -249.16729919 Ry
     Harris-Foulkes estimate   =    -249.16729920 Ry
     estimated scf accuracy    <       0.00000042 Ry

     iteration #  9     ecut=    30.00 Ry     beta=0.30
     Davidson diagonalization with overlap
     ethr =  1.85E-10,  avg # of iterations =  1.0

     total cpu time spent up to now is     3234.7 secs

     total energy              =    -249.16729917 Ry
     Harris-Foulkes estimate   =    -249.16729920 Ry
     estimated scf accuracy    <       0.00000020 Ry

     iteration # 10     ecut=    30.00 Ry     beta=0.30
     Davidson diagonalization with overlap
     ethr =  1.85E-10,  avg # of iterations =  2.6

     total cpu time spent up to now is     3309.6 secs

     total energy              =    -249.16729919 Ry
     Harris-Foulkes estimate   =    -249.16729919 Ry
     estimated scf accuracy    <       0.00000003 Ry

     iteration # 11     ecut=    30.00 Ry     beta=0.30
     Davidson diagonalization with overlap
     ethr =  4.25E-11,  avg # of iterations =  1.8

     total cpu time spent up to now is     3379.8 secs

     total energy              =    -249.16729919 Ry
     Harris-Foulkes estimate   =    -249.16729919 Ry
     estimated scf accuracy    <       0.00000005 Ry

     iteration # 12     ecut=    30.00 Ry     beta=0.30
     Davidson diagonalization with overlap
     ethr =  4.25E-11,  avg # of iterations =  1.0

     total cpu time spent up to now is     3447.5 secs

     total energy              =    -249.16729919 Ry
     Harris-Foulkes estimate   =    -249.16729919 Ry
     estimated scf accuracy    <       0.00000001 Ry

     iteration # 13     ecut=    30.00 Ry     beta=0.30
     Davidson diagonalization with overlap
     ethr =  2.06E-11,  avg # of iterations =  1.5

     total cpu time spent up to now is     3515.9 secs

     End of self-consistent calculation

          k = 0.0000 0.0000 0.0000 ( 11047 PWs)   bands (ev):

    -8.5687  -8.3033  -7.8781  -7.2894  -6.5402  -5.6453  -4.6094  -3.4345
    -2.1313  -0.6351  -0.2810  -0.2810  -0.0365  -0.0365   0.1672   0.3546
     0.3546   0.8979   0.8979   1.0791   1.0791   1.3324   1.3324   1.5934
     1.5934   1.7328   1.7328   2.2673   2.2673   2.2913   2.4282   2.4282
     3.0726   3.0726   3.4018   3.4018

          k = 0.0000 0.0625 0.0000 ( 11033 PWs)   bands (ev):

    -8.5329  -8.2675  -7.8425  -7.2540  -6.5049  -5.6101  -4.5745  -3.3997
    -2.0966  -0.8540  -0.6052  -0.6005  -0.2483  -0.2069  -0.0039   0.2004
     0.3444   0.3875   0.9310   1.0425   1.1136   1.3705   1.6264   1.7128
     1.7200   1.9278   1.9823   2.2633   2.3245   2.4123   2.4614   2.8000
     2.9273   3.2400   3.4349   3.5615

          k = 0.0000 0.1250 0.0000 ( 11039 PWs)   bands (ev):

    -8.4256  -8.1604  -7.7357  -7.1475  -6.3989  -5.5048  -4.4697  -3.2956
    -1.9936  -1.7596  -1.5068  -1.1026  -0.5434  -0.4983  -0.1500   0.0943
     0.1670   0.2998   0.4859   1.0050   1.0295   1.2186   1.4578   1.7250
     1.8923   1.9826   2.4239   2.5387   2.5599   2.8011   3.0263   3.1655
     3.2132   3.4100   3.5332   4.0373

          k = 0.0000 0.1875 0.0000 ( 11041 PWs)   bands (ev):

    -8.2468  -7.9820  -7.5578  -6.9703  -6.2225  -5.3293  -4.2953  -3.1224
    -2.6601  -2.4042  -1.9959  -1.8220  -1.4310  -0.7128  -0.3278   0.0140
     0.1427   0.2588   0.4651   0.6502   1.1141   1.1937   1.3822   1.6637
     1.8892   1.9661   2.4224   2.5878   2.6813   2.7240   3.3737   3.5560
     3.6974   3.9972   4.1135   4.1835

          k = 0.0000 0.2500 0.0000 ( 11029 PWs)   bands (ev):

    -7.9970  -7.7326  -7.3090  -6.7225  -5.9759  -5.0841  -4.0517  -3.5119
    -3.2546  -2.8806  -2.8431  -2.2738  -1.5823  -1.5492  -0.6852  -0.0897
     0.2442   0.3106   0.4889   0.6971   0.8803   1.3977   1.4237   1.6471
     1.8595   2.1190   2.3823   2.7842   2.8143   2.9187   2.9534   3.6072
     3.9264   4.2118   4.3226   4.4236

          k = 0.0000 0.3125 0.0000 ( 10979 PWs)   bands (ev):

    -7.6765  -7.4126  -6.9898  -6.4044  -5.6593  -4.7691  -4.3043  -4.0460
    -3.7383  -3.6322  -3.0593  -2.5695  -2.3303  -1.4600  -1.2743  -0.4545
     0.2155   0.5394   0.6777   0.7841   0.9945   1.1754   1.7192   1.8357
     1.9168   2.3609   2.4147   2.6641   3.0948   3.2168   3.2491   3.4515
     3.6943   3.9389   3.9614   4.1195

          k = 0.0000 0.3750 0.0000 ( 10950 PWs)   bands (ev):

    -7.2855  -7.0222  -6.6006  -6.0167  -5.2734  -5.0340  -4.7744  -4.3854
    -4.3587  -3.7829  -3.3571  -3.0501  -2.1911  -2.1751  -1.1631  -0.8997
    -0.0184   0.5859   0.9012   1.1460   1.2340   1.3577   1.5373   2.0811
     2.2063   2.6361   2.7765   2.8610   3.0042   3.0306   3.2487   3.4004
     3.4242   3.6105   3.6240   3.6400

          k = 0.0000 0.4375 0.0000 ( 10974 PWs)   bands (ev):

    -6.8250  -6.5625  -6.1421  -5.6983  -5.5599  -5.4376  -5.0202  -4.8187
    -4.4421  -3.9331  -3.7059  -2.9078  -2.8267  -1.8096  -1.7456  -0.6576
    -0.4590   0.6133   1.0195   1.3280   1.5728   1.7859   1.9646   2.0254
     2.3797   2.5083   2.6244   2.8278   2.8392   3.0158   3.0602   3.2032
     3.4625   3.5492   3.5593   4.0371

          k = 0.0000-0.5000 0.0000 ( 10974 PWs)   bands (ev):

    -6.2957  -6.2957  -6.0340  -6.0340  -5.6150  -5.6150  -5.0346  -5.0346
    -4.2957  -4.2957  -3.4131  -3.4131  -2.3915  -2.3915  -1.2338  -1.2338
     0.0463   0.0463   1.5099   1.5099   1.8209   1.8209   2.0657   2.0657
     2.2778   2.2778   2.4573   2.4573   3.0010   3.0010   3.2394   3.2394
     3.5387   3.5387   3.6956   3.6956

          k = 0.0625 0.0625 0.0000 ( 11047 PWs)   bands (ev):

    -8.4971  -8.2318  -7.8069  -7.2185  -6.4696  -5.5750  -4.5396  -3.3651
    -2.0622  -0.8207  -0.8207  -0.5720  -0.5720  -0.5664  -0.1741  -0.1741
     0.2335   0.3767   0.3767   1.0833   1.0833   1.7446   1.7446   1.9224
     1.9224   1.9932   1.9932   2.3575   2.4061   2.4061   2.8150   2.8150
     3.0628   3.0628   3.7137   3.7137

          k = 0.0625 0.1250 0.0000 ( 11040 PWs)   bands (ev):

    -8.3898  -8.1247  -7.7001  -7.1121  -6.3636  -5.4697  -4.4348  -3.2607
    -1.9591  -1.7255  -1.4732  -1.0694  -0.7208  -0.5111  -0.4719  -0.4642
    -0.0734   0.1916   0.3328   0.4918   1.0244   1.2227   1.8464   1.9752
     2.0337   2.1646   2.4561   2.4844   2.8316   2.9633   3.0973   3.1156
     3.2387   3.4672   3.7274   3.9850

          k = 0.0625 0.1875 0.0000 ( 11046 PWs)   bands (ev):

    -8.2111  -7.9464  -7.5222  -6.9349  -6.1872  -5.2943  -4.2604  -3.0876
    -2.6256  -2.3702  -1.9623  -1.7876  -1.3976  -0.6809  -0.5537  -0.3043
    -0.2939   0.0654   0.2076   0.4982   0.6420   1.1838   1.3620   1.9997
     2.1993   2.2648   2.2681   2.6180   2.7771   3.1776   3.2704   3.6000
     3.9506   4.0276   4.1299   4.2756

          k = 0.0625 0.2500 0.0000 ( 11029 PWs)   bands (ev):

    -7.9614  -7.6970  -7.2735  -6.6871  -5.9407  -5.0490  -4.0167  -3.4773
    -3.2200  -2.8458  -2.8087  -2.2397  -1.5481  -1.5157  -0.6538  -0.3197
    -0.0760  -0.0561   0.3288   0.3458   0.7300   0.8983   1.4783   1.5953
     2.2484   2.3951   2.4496   2.8357   2.8863   2.9642   3.4057   3.5077
     3.9639   4.0863   4.1296   4.3292

          k = 0.0625 0.3125 0.0000 ( 10965 PWs)   bands (ev):

    -7.6409  -7.3770  -6.9544  -6.3691  -5.6242  -4.7342  -4.2695  -4.0112
    -3.7037  -3.5975  -3.0248  -2.5353  -2.2960  -1.4265  -1.2406  -0.4241
    -0.0212   0.2322   0.2485   0.5798   0.7776   1.0275   1.1899   1.8909
     1.9601   2.5188   2.7339   2.8831   2.9935   3.2581   3.3425   3.4036
     3.4853   3.7503   3.8016   3.8092

          k = 0.0625 0.3750 0.0000 ( 10961 PWs)   bands (ev):

    -7.2500  -6.9868  -6.5653  -5.9815  -5.2383  -4.9991  -4.7396  -4.3505
    -4.3240  -3.7484  -3.3225  -3.0156  -2.1569  -2.1408  -1.1295  -0.8661
     0.0094   0.3488   0.5877   0.6175   1.0079   1.2972   1.3904   1.5541
     2.2509   2.4631   2.6230   2.7220   3.0875   3.0951   3.1190   3.2201
     3.5009   3.5227   3.6222   3.6689

          k = 0.0625 0.4375 0.0000 ( 10967 PWs)   bands (ev):

    -6.7897  -6.5272  -6.1069  -5.6632  -5.5248  -5.4026  -4.9853  -4.7838
    -4.4073  -3.8984  -3.6713  -2.8734  -2.7923  -1.7756  -1.7116  -0.6248
    -0.4261   0.6298   0.7747   1.0439   1.0585   1.4362   1.8170   1.8573
     1.9842   2.0989   2.1124   2.4940   2.6918   2.8624   3.0442   3.3854
     3.5365   3.6452   3.7294   3.8477

          k = 0.0625-0.5000 0.0000 ( 10986 PWs)   bands (ev):

    -6.2604  -6.2604  -5.9988  -5.9988  -5.5799  -5.5799  -4.9997  -4.9997
    -4.2610  -4.2610  -3.3784  -3.3784  -2.3573  -2.3573  -1.2003  -1.2003
     0.0778   0.0778   1.2398   1.2398   1.5384   1.5384   1.5984   1.5984
     1.9325   1.9325   2.3042   2.3042   2.4885   2.4885   3.1837   3.1837
     3.7733   3.7733   4.0249   4.0249

          k = 0.1250 0.1250 0.0000 ( 11037 PWs)   bands (ev):

    -8.2826  -8.0177  -7.5934  -7.0058  -6.2578  -5.3644  -4.3301  -3.1570
    -1.8563  -1.6240  -1.6240  -1.3720  -1.3720  -0.9690  -0.9690  -0.4121
    -0.4121  -0.3621   0.3090   0.3090   0.4319   1.1724   1.1724   2.1454
     2.1454   2.5515   2.9222   2.9222   3.1670   3.1670   3.2402   3.2402
     3.6636   3.6636   4.0633   4.1426

          k = 0.1250 0.1875 0.0000 ( 11030 PWs)   bands (ev):

    -8.1041  -7.8395  -7.4156  -6.8287  -6.0815  -5.1891  -4.1560  -2.9840
    -2.5225  -2.2677  -1.8605  -1.6851  -1.4551  -1.2975  -1.2034  -0.7998
    -0.5901  -0.2227  -0.1923   0.2572   0.5184   0.5974   1.2773   1.3471
     2.2876   2.4324   2.7017   3.0979   3.2695   3.4273   3.7847   3.7917
     3.9331   3.9893   4.1331   4.3201

          k = 0.1250 0.2500 0.0000 ( 11008 PWs)   bands (ev):

    -7.8545  -7.5903  -7.1671  -6.5811  -5.8351  -4.9440  -3.9124  -3.3734
    -3.1163  -2.7423  -2.7058  -2.1376  -1.4455  -1.4163  -1.2181  -0.9658
[...]
    -0.0341   0.2180   0.3152   0.5297   1.0475   1.2464   1.8453   1.9818
     2.0534   2.1954   2.4491   2.5247   2.8312   2.9705   3.1300   3.1436
     3.2337   3.5012   3.7470   3.9499

          k = 0.0625 0.1875 0.0000 ( 11046 PWs)   bands (ev):

    -8.2108  -7.9172  -7.4837  -6.9003  -6.1615  -5.2777  -4.2555  -3.0949
    -2.6255  -2.3409  -1.9231  -1.7996  -1.3620  -0.6538  -0.5539  -0.3136
    -0.2753   0.0968   0.2345   0.4806   0.6794   1.1895   1.3895   1.9950
     2.2186   2.2734   2.2983   2.6110   2.8049   3.1846   3.3030   3.5889
     3.9772   4.0245   4.0981   4.2766

          k = 0.0625 0.2500 0.0000 ( 11029 PWs)   bands (ev):

    -7.9611  -7.6679  -7.2350  -6.6526  -5.9149  -5.0325  -4.0118  -3.4772
    -3.1908  -2.8530  -2.7697  -2.2044  -1.5600  -1.4891  -0.6362  -0.3203
    -0.0758  -0.0479   0.3550   0.3694   0.7125   0.9332   1.4720   1.6233
     2.2502   2.4144   2.4710   2.8288   2.8827   3.0002   3.4126   3.5413
     3.9635   4.1042   4.1352   4.3329

          k = 0.0625 0.3125 0.0000 ( 10965 PWs)   bands (ev):

    -7.6406  -7.3479  -6.9158  -6.3345  -5.5984  -4.7176  -4.2694  -3.9820
    -3.6987  -3.5587  -2.9897  -2.5424  -2.2696  -1.4091  -1.2523  -0.4184
    -0.0219   0.2290   0.2625   0.6088   0.7830   1.0102   1.2261   1.9189
     1.9521   2.5193   2.7531   2.9095   2.9885   3.2952   3.3404   3.4338
     3.4720   3.7531   3.8339   3.8504

          k = 0.0625 0.3750 0.0000 ( 10961 PWs)   bands (ev):

    -7.2498  -6.9577  -6.5267  -5.9469  -5.2125  -4.9989  -4.7104  -4.3338
    -4.2853  -3.7134  -3.3174  -2.9894  -2.1639  -2.1236  -1.1239  -0.8776
     0.0029   0.3497   0.5983   0.6174   1.0471   1.2871   1.3733   1.5907
     2.2782   2.4620   2.6137   2.7521   3.0868   3.1059   3.1591   3.2495
     3.4861   3.5178   3.6600   3.7059

          k = 0.0625 0.4375 0.0000 ( 10967 PWs)   bands (ev):

    -6.7894  -6.4981  -6.0683  -5.6630  -5.4901  -5.3734  -4.9466  -4.7578
    -4.3725  -3.8816  -3.6452  -2.8682  -2.7753  -1.7702  -1.7185  -0.6313
    -0.4373   0.6218   0.7747   1.0254   1.0856   1.4761   1.8006   1.8562
     2.0208   2.0950   2.1284   2.5343   2.7198   2.8474   3.0812   3.3832
     3.5553   3.6741   3.7526   3.8469

          k = 0.0625-0.5000 0.0000 ( 10986 PWs)   bands (ev):

    -6.2602  -6.2602  -5.9697  -5.9697  -5.5413  -5.5413  -4.9650  -4.9650
    -4.2350  -4.2350  -3.3615  -3.3615  -2.3520  -2.3520  -1.2070  -1.2070
     0.0669   0.0669   1.2382   1.2382   1.5681   1.5681   1.5811   1.5811
     1.9726   1.9726   2.2892   2.2892   2.5239   2.5239   3.2120   3.2120
     3.7700   3.7700   4.0441   4.0441

          k = 0.1250 0.1250 0.0000 ( 11037 PWs)   bands (ev):

    -8.2823  -7.9885  -7.5549  -6.9712  -6.2320  -5.3478  -4.3253  -3.1642
    -1.8683  -1.6240  -1.6240  -1.3425  -1.3425  -0.9296  -0.9296  -0.3818
    -0.3773  -0.3773   0.3379   0.3379   0.4143   1.1898   1.1898   2.1518
     2.1518   2.5445   2.9189   2.9189   3.1950   3.1950   3.2501   3.2501
     3.6924   3.6924   4.0316   4.1712

          k = 0.1250 0.1875 0.0000 ( 11030 PWs)   bands (ev):

    -8.1038  -7.8103  -7.3771  -6.7941  -6.0557  -5.1725  -4.1511  -2.9913
    -2.5224  -2.2384  -1.8212  -1.6970  -1.4549  -1.2620  -1.1740  -0.7614
    -0.5645  -0.2120  -0.1852   0.2802   0.5413   0.5799   1.2815   1.3668
     2.2895   2.4311   2.6947   3.0995   3.2900   3.4263   3.7769   3.8289
     3.9327   4.0009   4.1351   4.3442

          k = 0.1250 0.2500 0.0000 ( 11008 PWs)   bands (ev):

    -7.8542  -7.5612  -7.1286  -6.5465  -5.8093  -4.9274  -3.9074  -3.3733
    -3.0870  -2.7494  -2.6668  -2.1022  -1.4574  -1.3894  -1.2182  -0.9372
    -0.6007  -0.4517   0.0252   0.0259   0.4834   0.7501   0.8115   1.5855
     1.5879   2.5638   2.7992   2.8079   3.2495   3.3062   3.3199   3.6585
     3.6920   3.7456   4.0580   4.2809

          k = 0.1250 0.3125 0.0000 ( 10981 PWs)   bands (ev):

    -7.5340  -7.2414  -6.8097  -6.2287  -5.4930  -4.6129  -4.1653  -3.8779
    -3.5948  -3.4548  -2.8863  -2.4393  -2.1672  -1.3099  -1.1504  -0.9139
    -0.6439  -0.3056  -0.2171   0.3277   0.3564   0.8283   1.0531   1.1086
     1.8712   2.0978   2.2792   2.5802   2.8490   2.9897   3.3162   3.4004
     3.5410   3.8116   3.9277   3.9504

          k = 0.1250 0.3750 0.0000 ( 10969 PWs)   bands (ev):

    -7.1434  -6.8515  -6.4208  -5.8413  -5.1074  -4.8942  -4.6057  -4.2293
    -4.1808  -3.6093  -3.2137  -2.8859  -2.0614  -2.0215  -1.0260  -0.7768
    -0.5465  -0.2577   0.0410   0.2413   0.6884   0.7179   1.3874   1.4165
     1.4703   1.6176   1.8911   2.2591   2.2997   2.8044   2.8505   3.2636
     3.5245   3.5636   3.6711   4.0242

          k = 0.1250 0.4375 0.0000 ( 10969 PWs)   bands (ev):

    -6.6834  -6.3922  -5.9627  -5.5578  -5.3849  -5.2683  -4.8417  -4.6530
    -4.2679  -3.7775  -3.5411  -2.7650  -2.6719  -1.6684  -1.6165  -0.5369
    -0.3387  -0.1028   0.1619   0.6054   0.7696   0.8954   1.1529   1.2201
     1.2632   1.6698   1.8408   1.8934   2.2255   2.2263   2.6665   2.9183
     2.9799   3.6706   3.7571   4.0404

          k = 0.1250-0.5000 0.0000 ( 10954 PWs)   bands (ev):

    -6.1546  -6.1546  -5.8642  -5.8642  -5.4361  -5.4361  -4.8602  -4.8602
    -4.1306  -4.1306  -3.2578  -3.2578  -2.2491  -2.2491  -1.1063  -1.1063
     0.1516   0.1516   0.3898   0.3898   0.7125   0.7125   1.1039   1.1039
     1.6518   1.6518   1.6564   1.6564   2.3593   2.3593   2.3885   2.3885
     3.2021   3.2021   4.1454   4.1454

          k = 0.1875 0.1875 0.0000 ( 11009 PWs)   bands (ev):

    -7.9255  -7.6323  -7.1996  -6.6172  -5.8797  -4.9974  -3.9769  -2.8184
    -2.3514  -2.3514  -2.0678  -2.0678  -1.6519  -1.6519  -1.5259  -1.0958
    -1.0958  -0.3724  -0.3724  -0.0428   0.4863   0.4863   0.7453   1.4607
     1.4607   2.5726   2.5726   2.7339   3.2052   3.2704   3.6986   3.7946
     3.7946   4.2327   4.2794   4.2794

          k = 0.1875 0.2500 0.0000 ( 11000 PWs)   bands (ev):

    -7.6763  -7.3835  -6.9513  -6.3699  -5.6335  -4.7525  -3.7335  -3.2004
    -2.9150  -2.5770  -2.4956  -2.1123  -1.9331  -1.8295  -1.4142  -1.2870
    -1.2313  -0.8329  -0.3773  -0.1048   0.1917   0.6265   0.7314   0.9761
     1.6513   1.8056   2.1679   2.4726   2.7685   2.8833   3.0509   3.1976
     3.4359   3.9919   4.1368   4.3622

          k = 0.1875 0.3125 0.0000 ( 10987 PWs)   bands (ev):

    -7.3564  -7.0641  -6.6328  -6.0525  -5.3176  -4.4383  -3.9918  -3.7045
    -3.4214  -3.2820  -2.7148  -2.2674  -1.9985  -1.8057  -1.5230  -1.1979
    -1.0417  -0.9810  -0.5531  -0.1161   0.1748   0.4853   0.9950   1.0182
     1.2716   1.4455   1.7201   2.0009   2.1296   2.2471   2.6820   3.1197
     3.3535   3.4971   3.6638   4.2116

          k = 0.1875 0.3750 0.0000 ( 10952 PWs)   bands (ev):

    -6.9664  -6.6747  -6.2444  -5.6656  -4.9324  -4.7199  -4.4316  -4.0553
    -4.0070  -3.4364  -3.0409  -2.7142  -1.8903  -1.8531  -1.4313  -1.1612
    -0.8420  -0.7301  -0.6099  -0.1541   0.2947   0.5481   0.6438   0.9648
     1.0254   1.3645   1.4332   1.5823   1.6289   1.9911   2.3509   2.6862
     3.0346   3.4272   3.5281   3.8140

          k = 0.1875 0.4375 0.0000 ( 10952 PWs)   bands (ev):

    -6.5068  -6.2159  -5.7868  -5.3826  -5.2096  -5.0934  -4.6673  -4.4786
    -4.0942  -3.6039  -3.3684  -2.5928  -2.5007  -1.5017  -1.4471  -0.9940
    -0.7038  -0.4196  -0.2128  -0.1853   0.0805   0.2774   0.4058   0.7989
     0.9231   0.9796   1.3258   1.3489   1.8267   2.0586   2.0606   2.3613
     2.8420   2.9072   3.1066   3.8550

          k = 0.1875-0.5000 0.0000 ( 10962 PWs)   bands (ev):

    -5.9786  -5.9786  -5.6885  -5.6885  -5.2609  -5.2609  -4.6856  -4.6856
    -3.9569  -3.9569  -3.0853  -3.0853  -2.0786  -2.0786  -0.9433  -0.9433
    -0.4806  -0.4806  -0.2161  -0.2161   0.2313   0.2313   0.3696   0.3696
     0.7820   0.7820   1.4701   1.4701   1.8382   1.8382   2.2957   2.2957
     2.5931   2.5931   3.3125   3.3125

          k = 0.2500 0.2500 0.0000 ( 10971 PWs)   bands (ev):

    -7.4274  -7.1349  -6.7034  -6.1229  -5.3877  -4.5081  -3.4907  -2.9595
    -2.9595  -2.6746  -2.6746  -2.3361  -2.2564  -2.2564  -1.6971  -1.6971
    -1.0491  -0.9693  -0.9693  -0.1085  -0.1085   0.4175   0.8726   0.8726
     1.2058   1.3856   1.6603   1.9938   1.9938   2.0702   2.6233   3.2441
     3.2441   3.2935   3.4363   4.1535

          k = 0.2500 0.3125 0.0000 ( 10980 PWs)   bands (ev):

    -7.1081  -6.8161  -6.3855  -5.8061  -5.0723  -4.1944  -3.7491  -3.4624
    -3.1792  -3.0411  -2.6507  -2.4760  -2.3663  -2.0275  -1.9489  -1.7705
    -1.3651  -0.9097  -0.7457  -0.6383   0.0914   0.2076   0.5153   0.8342
     0.9013   1.1246   1.2854   1.3097   1.4963   1.8688   2.2503   2.5405
     2.5647   3.4079   3.4890   3.6935

          k = 0.2500 0.3750 0.0000 ( 10944 PWs)   bands (ev):

    -6.7187  -6.4274  -5.9978  -5.4199  -4.6878  -4.4760  -4.1881  -3.8121
    -3.7642  -3.1948  -2.7995  -2.4756  -2.2733  -1.9898  -1.6675  -1.6520
    -1.5106  -1.0142  -0.5891  -0.3878  -0.2863  -0.1106   0.2147   0.5281
     0.5611   0.6089   1.1251   1.1601   1.5484   1.7874   1.8606   1.8736
     2.6724   2.7221   3.2249   3.6707

          k = 0.2500 0.4375 0.0000 ( 10976 PWs)   bands (ev):

    -6.2600  -5.9694  -5.5410  -5.1377  -4.9648  -4.8489  -4.4234  -4.2349
    -3.8512  -3.3618  -3.1270  -2.3530  -2.2630  -1.8294  -1.5586  -1.2478
    -1.2149  -1.1254  -0.7403  -0.5492  -0.4751  -0.1104  -0.0271   0.0997
     0.1571   0.5255   0.9725   1.1870   1.2137   1.5734   1.9648   2.0400
     2.3328   2.6483   3.0415   3.0635

          k = 0.2500-0.5000 0.0000 ( 10962 PWs)   bands (ev):

    -5.7327  -5.7327  -5.4429  -5.4429  -5.0158  -5.0158  -4.4415  -4.4415
    -3.7141  -3.7141  -2.8445  -2.8445  -1.8425  -1.8425  -1.3227  -1.3227
    -1.0318  -1.0318  -0.7511  -0.7511  -0.5463  -0.5463  -0.0481  -0.0481
     0.5882   0.5882   0.6566   0.6566   1.5064   1.5064   2.0314   2.0314
     2.5268   2.5268   2.7775   2.7775

          k = 0.3125 0.3125 0.0000 ( 10986 PWs)   bands (ev):

    -6.7894  -6.4980  -6.0682  -5.4900  -4.7577  -3.8816  -3.4375  -3.4375
    -3.1520  -3.1520  -2.8687  -2.7324  -2.7324  -2.1706  -2.1706  -1.7204
    -1.4397  -1.4397  -0.5781  -0.5781  -0.4555  -0.1754   0.1499   0.4077
     0.4077   0.5445   1.0575   1.0962   1.5340   1.5340   1.7938   1.8104
     2.6597   2.7914   2.7914   3.6086

          k = 0.3125 0.3750 0.0000 ( 10964 PWs)   bands (ev):

    -6.4009  -6.1102  -5.6814  -5.1046  -4.3739  -4.1629  -3.8757  -3.5001
    -3.4530  -3.0586  -2.8860  -2.7733  -2.4905  -2.3545  -2.1774  -1.7699
    -1.3510  -1.3116  -1.0447  -0.8713  -0.6055  -0.3136  -0.1906  -0.1578
    -0.0358   0.3956   0.7244   0.8901   1.0841   1.4402   1.8553   1.9110
     2.1492   2.2022   2.9370   3.0994

          k = 0.3125 0.4375 0.0000 ( 10952 PWs)   bands (ev):

    -5.9432  -5.6532  -5.2256  -4.8234  -4.6504  -4.5350  -4.1104  -3.9221
    -3.5397  -3.0514  -2.8185  -2.6114  -2.3268  -2.0478  -2.0051  -1.8497
    -1.5220  -1.3475  -1.2305  -0.9510  -0.9299  -0.7488  -0.6202  -0.2461
     0.1920   0.2300   0.3858   0.4600   1.2203   1.3117   1.4553   1.8314
     2.3349   2.3478   2.5799   2.8985

          k = 0.3125-0.5000 0.0000 ( 10950 PWs)   bands (ev):

    -5.4171  -5.4171  -5.1279  -5.1279  -4.7016  -4.7016  -4.1284  -4.1284
    -3.4030  -3.4030  -2.5372  -2.5372  -2.0979  -2.0979  -1.8261  -1.8261
    -1.5195  -1.5195  -1.3920  -1.3920  -0.8162  -0.8162  -0.3819  -0.3819
    -0.1070  -0.1070   0.7081   0.7081   0.9215   0.9215   1.7040   1.7040
     2.3856   2.3856   2.7815   2.7815

          k = 0.3750 0.3750 0.0000 ( 10962 PWs)   bands (ev):

    -6.0135  -5.7234  -5.2957  -4.7202  -3.9914  -3.7813  -3.7813  -3.4951
    -3.4951  -3.1203  -3.0742  -3.0742  -2.5107  -2.5107  -2.1163  -1.7781
    -1.7781  -1.5883  -1.2968  -1.0177  -0.9162  -0.9162  -0.8166  -0.3123
     0.0731   0.0731   0.3182   0.3944   1.2027   1.2027   1.2468   1.7646
     2.2702   2.4640   2.4640   2.5141

          k = 0.3750 0.4375 0.0000 ( 10953 PWs)   bands (ev):

    -5.5570  -5.2676  -4.8409  -4.4400  -4.2673  -4.1524  -3.7290  -3.5412
    -3.3321  -3.1609  -3.0462  -2.6745  -2.6266  -2.4502  -2.2328  -2.0415
    -1.9605  -1.6559  -1.5809  -1.5259  -1.3177  -0.9508  -0.5856  -0.5181
    -0.4579  -0.2401   0.4559   0.5749   0.6244   0.7880   1.5726   1.5903
     1.8859   2.2532   2.6511   2.8376

          k = 0.3750-0.5000 0.0000 ( 10952 PWs)   bands (ev):

    -5.0324  -5.0324  -4.7436  -4.7436  -4.3184  -4.3184  -3.7470  -3.7470
    -3.0250  -3.0250  -2.8152  -2.8152  -2.5301  -2.5301  -2.2084  -2.2084
    -2.0542  -2.0542  -1.5487  -1.5487  -1.1353  -1.1353  -0.8222  -0.8222
    -0.0104  -0.0104   0.0300   0.0300   1.0221   1.0221   1.2550   1.2550
     2.1514   2.1514   2.7005   2.7005

          k = 0.4375 0.4375 0.0000 ( 10986 PWs)   bands (ev):

    -5.1021  -4.8133  -4.3878  -3.9885  -3.9885  -3.8162  -3.7016  -3.7016
    -3.2800  -3.2800  -3.0939  -2.8835  -2.7155  -2.7155  -2.5984  -2.2763
    -2.1228  -1.9823  -1.9823  -1.6160  -1.2038  -1.1205  -1.1205  -0.8903
    -0.1288  -0.1288  -0.0779  -0.0376   0.9556   1.0027   1.0027   1.1880
     2.0861   2.2661   2.2661   2.6341

          k = 0.4375-0.5000 0.0000 ( 10998 PWs)   bands (ev):

    -4.5790  -4.5790  -4.2910  -4.2910  -3.8673  -3.8673  -3.4693  -3.4693
    -3.2986  -3.2986  -3.1834  -3.1834  -2.7634  -2.7634  -2.5868  -2.5868
    -2.1779  -2.1779  -1.7161  -1.7161  -1.4550  -1.4550  -0.7220  -0.7220
    -0.5923  -0.5923   0.3210   0.3210   0.4912   0.4912   1.4569   1.4569
     1.7536   1.7536   2.7056   2.7056

          k =-0.5000-0.5000 0.0000 ( 10956 PWs)   bands (ev):

    -4.0576  -4.0576  -4.0576  -4.0576  -3.7705  -3.7705  -3.7705  -3.7705
    -3.3487  -3.3487  -3.3487  -3.3487  -2.7837  -2.7837  -2.7837  -2.7837
    -2.0501  -2.0501  -2.0501  -2.0501  -1.1886  -1.1886  -1.1886  -1.1886
    -0.1963  -0.1963  -0.1963  -0.1963   0.9361   0.9361   0.9361   0.9361
     2.2001   2.2001   2.2001   2.2001

     the Fermi energy is     2.6137 ev

!    total energy              =    -249.16770574 Ry
     Harris-Foulkes estimate   =    -249.16770575 Ry
     estimated scf accuracy    <          5.3E-09 Ry

     The total energy is the sum of the following terms:

     one-electron contribution =   -1698.29807276 Ry
     hartree contribution      =     867.21166447 Ry
     xc contribution           =    -200.22885947 Ry
     ewald contribution        =     782.14812710 Ry
     smearing contrib. (-TS)   =      -0.00056507 Ry

     convergence has been achieved in  15 iterations

     Forces acting on atoms (Ry/au):

     atom    1 type  1   force =     0.00000000    0.00000000    0.00002956
     atom    2 type  1   force =     0.00000000    0.00000000    0.00002955
     atom    3 type  1   force =     0.00000000    0.00000000   -0.00045531
     atom    4 type  1   force =     0.00000000    0.00000000   -0.00045531
     atom    5 type  1   force =     0.00000000    0.00000000   -0.00047571
     atom    6 type  1   force =     0.00000000    0.00000000   -0.00047571
     atom    7 type  1   force =     0.00000000    0.00000000    0.00020691
     atom    8 type  1   force =     0.00000000    0.00000000    0.00020691
     atom    9 type  1   force =     0.00000000    0.00000000    0.00005125
     atom   10 type  1   force =     0.00000000    0.00000000    0.00005125
     atom   11 type  1   force =     0.00000000    0.00000000   -0.00005123
     atom   12 type  1   force =     0.00000000    0.00000000   -0.00005123
     atom   13 type  1   force =     0.00000000    0.00000000   -0.00020693
     atom   14 type  1   force =     0.00000000    0.00000000   -0.00020693
     atom   15 type  1   force =     0.00000000    0.00000000    0.00047569
     atom   16 type  1   force =     0.00000000    0.00000000    0.00047569
     atom   17 type  1   force =     0.00000000    0.00000000    0.00045534
     atom   18 type  1   force =     0.00000000    0.00000000    0.00045537
     atom   19 type  1   force =     0.00000000    0.00000000   -0.00002958
     atom   20 type  1   force =     0.00000000    0.00000000   -0.00002958

     Total force =     0.001386     Total SCF correction =     0.000123


     entering subroutine stress ...

          total   stress  (Ry/bohr**3)                   (kbar)     P=   -8.61
  -0.00007894   0.00000000   0.00000000        -11.61      0.00      0.00
   0.00000000  -0.00007894   0.00000000          0.00    -11.61      0.00
   0.00000000   0.00000000  -0.00001767          0.00      0.00     -2.60


     bfgs converged in  10 scf cycles and   9 bfgs steps
     (criteria: energy <  1.0E-04, force <  1.0E-03)

     End of BFGS Geometry Optimization

     Final energy   =    -249.1677057430 Ry
Begin final coordinates

ATOMIC_POSITIONS (crystal)
Al       0.000000000   0.000000000  -0.000906203
Al       0.500000000   0.500000000  -0.000906201
Al       0.500000000   0.000000000   0.055694538
Al       0.000000000   0.500000000   0.055694538
Al       0.000000000   0.000000000   0.111514355
Al       0.500000000   0.500000000   0.111514356
Al       0.500000000   0.000000000   0.166989957
Al       0.000000000   0.500000000   0.166989957
Al       0.000000000   0.000000000   0.222341403
Al       0.500000000   0.500000000   0.222341404
Al       0.500000000   0.000000000   0.277658592
Al       0.000000000   0.500000000   0.277658592
Al       0.000000000   0.000000000   0.333010044
Al       0.500000000   0.500000000   0.333010044
Al       0.500000000   0.000000000   0.388485646
Al       0.000000000   0.500000000   0.388485646
Al       0.000000000   0.000000000   0.444305462
Al       0.500000000   0.500000000   0.444305457
Al       0.500000000   0.000000000   0.500906207
Al       0.000000000   0.500000000   0.500906207
End final coordinates



     Writing output data file Al_100_5_4.save

     init_run     :     59.67s CPU     66.04s WALL (       1 calls)
     electrons    :   7455.02s CPU   8865.46s WALL (      10 calls)
     update_pot   :      6.24s CPU      6.64s WALL (       9 calls)
     forces       :    140.12s CPU    141.33s WALL (      10 calls)
     stress       :    212.06s CPU    214.31s WALL (      10 calls)

     Called by init_run:
     wfcinit      :     58.64s CPU     64.96s WALL (       1 calls)
     potinit      :      0.25s CPU      0.28s WALL (       1 calls)

     Called by electrons:
     c_bands      :   6413.50s CPU   7535.03s WALL (     114 calls)
     sum_band     :    871.84s CPU   1117.98s WALL (     114 calls)
     v_of_rho     :     22.24s CPU     24.71s WALL (     120 calls)
     newd         :     31.14s CPU     31.45s WALL (     120 calls)
     mix_rho      :    118.61s CPU    158.21s WALL (     114 calls)

     Called by c_bands:
     init_us_2    :     42.40s CPU     52.94s WALL (   11205 calls)
     cegterg      :   6353.44s CPU   7463.84s WALL (    5130 calls)

     Called by *egterg:
     h_psi        :   3750.67s CPU   4722.85s WALL (   15326 calls)
     s_psi        :    710.37s CPU    724.60s WALL (   15326 calls)
     g_psi        :      9.57s CPU     12.23s WALL (   10151 calls)
     cdiaghg      :     45.01s CPU     52.42s WALL (   14696 calls)

     Called by h_psi:
     add_vuspsi   :    713.61s CPU    723.70s WALL (   15326 calls)

     General routines
     calbec       :   1122.22s CPU   1138.25s WALL (   21356 calls)
     fft          :     16.85s CPU     21.10s WALL (    2155 calls)
     ffts         :     68.34s CPU     95.75s WALL (   22370 calls)
     fftw         :   2578.82s CPU   3664.78s WALL ( 1016460 calls)
     interpolate  :      2.60s CPU      3.61s WALL (     234 calls)
     davcio       :      0.00s CPU      0.16s WALL (      45 calls)

     Parallel routines
     fft_scatter  :    122.94s CPU    182.05s WALL ( 1040985 calls)

     PWSCF        :     2h11m CPU        2h34m WALL


   This run was terminated on:  14:31:26  28May2020            

=------------------------------------------------------------------------------=
   JOB DONE.
=------------------------------------------------------------------------------=
