
     Program PWSCF v.6.4.1 starts on 28May2020 at  1: 4:51 

     This program is part of the open-source Quantum ESPRESSO suite
     for quantum simulation of materials; please cite
         "P. Giannozzi et al., J. Phys.:Condens. Matter 21 395502 (2009);
         "P. Giannozzi et al., J. Phys.:Condens. Matter 29 465901 (2017);
          URL http://www.quantum-espresso.org", 
     in publications or presentations arising from this work. More details at
     http://www.quantum-espresso.org/quote

     Parallel version (MPI & OpenMP), running on       1 processor cores
     Number of MPI processes:                 1
     Threads/MPI process:                     1

     MPI processes distributed on     1 nodes
     Reading input from Al_111_bulk_90_7.54.pw.in
Warning: card  &IONS ignored
Warning: card   ION_DYNAMICS = 'BFGS', ignored
Warning: card  / ignored
Warning: card  &CELL ignored
Warning: card  / ignored

     Current dimensions of program PWSCF are:
     Max number of different atomic species (ntypx) = 10
     Max number of k-points (npk) =  40000
     Max angular momentum in pseudopotentials (lmaxx) =  3

     Subspace diagonalization in iterative solution of the eigenvalue problem:
     a serial algorithm will be used

     Found symmetry operation: I + (  0.3333 -0.3333  0.3333)
     This is a supercell, fractional translations are disabled
 
     G-vector sticks info
     --------------------
     sticks:   dense  smooth     PW     G-vecs:    dense   smooth      PW
     Sum         583     583    421                28183    28183   16789
 


     bravais-lattice index     =            4
     lattice parameter (alat)  =       7.5400  a.u.
     unit-cell volume          =     909.3274 (a.u.)^3
     number of atoms/cell      =            3
     number of atomic types    =            1
     number of electrons       =         9.00
     number of Kohn-Sham states=            9
     kinetic-energy cutoff     =      90.0000  Ry
     charge density cutoff     =     150.0000  Ry
     convergence threshold     =      1.0E-08
     mixing beta               =       0.3000
     number of iterations used =            8  local-TF  mixing
     Exchange-correlation      =  SLA  PW   PBE  PBE ( 1  4  3  4 0 0)

     celldm(1)=   7.540000  celldm(2)=   0.000000  celldm(3)=   2.449490
     celldm(4)=   0.000000  celldm(5)=   0.000000  celldm(6)=   0.000000

     crystal axes: (cart. coord. in units of alat)
               a(1) = (   1.000000   0.000000   0.000000 )  
               a(2) = (  -0.500000   0.866025   0.000000 )  
               a(3) = (   0.000000   0.000000   2.449490 )  

     reciprocal axes: (cart. coord. in units 2 pi/alat)
               b(1) = (  1.000000  0.577350  0.000000 )  
               b(2) = (  0.000000  1.154701  0.000000 )  
               b(3) = (  0.000000  0.000000  0.408248 )  


     PseudoPot. # 1 for Al read from file:
     ./Al.pbe-n-van.UPF
     MD5 check sum: b11ded24487aef5bc42d5c7a2e22a7b6
     Pseudo is Ultrasoft + core correction, Zval =  3.0
     Generated by new atomic code, or converted to UPF format
     Using radial grid of  893 points,  2 beta functions with: 
                l(1) =   0
                l(2) =   1
     Q(r) pseudized with  8 coefficients,  rinner =    0.900   0.900   0.900


     atomic species   valence    mass     pseudopotential
        Al             3.00    26.98000     Al( 1.00)

     12 Sym. Ops., with inversion, found



   Cartesian axes

     site n.     atom                  positions (alat units)
         1           Al  tau(   1) = (   0.0000000   0.0000000   0.0000000  )
         2           Al  tau(   2) = (  -0.0000000   0.5773503   0.8164966  )
         3           Al  tau(   3) = (   0.5000000   0.2886751   1.6329932  )

     number of k points=   480  Marzari-Vanderbilt smearing, width (Ry)=  0.0250

     Number of k-points >= 100: set verbosity='high' to print them.

     Dense  grid:    28183 G-vectors     FFT dimensions: (  30,  30,  75)

     Estimated max dynamical RAM per process >     906.57 MB

     Initial potential from superposition of free atoms

     starting charge    8.99260, renormalised to    9.00000
     Starting wfcs are   12 randomized atomic wfcs

     total cpu time spent up to now is       17.4 secs

     Self-consistent Calculation

     iteration #  1     ecut=    90.00 Ry     beta= 0.30
     Davidson diagonalization with overlap
     ethr =  1.00E-02,  avg # of iterations =  2.6

     Threshold (ethr) on eigenvalues was too large:
     Diagonalizing with lowered threshold

     Davidson diagonalization with overlap
     ethr =  1.14E-04,  avg # of iterations =  2.7

     total cpu time spent up to now is       85.9 secs

     total energy              =     -37.03583816 Ry
     Harris-Foulkes estimate   =     -37.03646521 Ry
     estimated scf accuracy    <       0.01044827 Ry

     iteration #  2     ecut=    90.00 Ry     beta= 0.30
     Davidson diagonalization with overlap
     ethr =  1.16E-04,  avg # of iterations =  1.0

     total cpu time spent up to now is      111.9 secs

     total energy              =     -37.03400317 Ry
     Harris-Foulkes estimate   =     -37.03589306 Ry
     estimated scf accuracy    <       0.00700840 Ry

     iteration #  3     ecut=    90.00 Ry     beta= 0.30
     Davidson diagonalization with overlap
     ethr =  7.79E-05,  avg # of iterations =  1.0

     total cpu time spent up to now is      137.9 secs

     total energy              =     -37.03447176 Ry
     Harris-Foulkes estimate   =     -37.03446055 Ry
     estimated scf accuracy    <       0.00001511 Ry

     iteration #  4     ecut=    90.00 Ry     beta= 0.30
     Davidson diagonalization with overlap
     ethr =  1.68E-07,  avg # of iterations =  4.3

     total cpu time spent up to now is      184.0 secs

     total energy              =     -37.03451454 Ry
     Harris-Foulkes estimate   =     -37.03451518 Ry
     estimated scf accuracy    <       0.00000813 Ry

     iteration #  5     ecut=    90.00 Ry     beta= 0.30
     Davidson diagonalization with overlap
     ethr =  9.03E-08,  avg # of iterations =  1.0

     total cpu time spent up to now is      210.0 secs

     total energy              =     -37.03451521 Ry
     Harris-Foulkes estimate   =     -37.03451495 Ry
     estimated scf accuracy    <       0.00000058 Ry

     iteration #  6     ecut=    90.00 Ry     beta= 0.30
     Davidson diagonalization with overlap
     ethr =  6.47E-09,  avg # of iterations =  2.2

     total cpu time spent up to now is      243.0 secs

     total energy              =     -37.03451510 Ry
     Harris-Foulkes estimate   =     -37.03451554 Ry
     estimated scf accuracy    <       0.00000125 Ry

     iteration #  7     ecut=    90.00 Ry     beta= 0.30
     Davidson diagonalization with overlap
     ethr =  6.47E-09,  avg # of iterations =  2.0

     total cpu time spent up to now is      275.5 secs

     total energy              =     -37.03451527 Ry
     Harris-Foulkes estimate   =     -37.03451532 Ry
     estimated scf accuracy    <       0.00000024 Ry

     iteration #  8     ecut=    90.00 Ry     beta= 0.30
     Davidson diagonalization with overlap
     ethr =  2.65E-09,  avg # of iterations =  1.0

     total cpu time spent up to now is      301.5 secs

     total energy              =     -37.03451527 Ry
     Harris-Foulkes estimate   =     -37.03451527 Ry
     estimated scf accuracy    <       0.00000003 Ry

     iteration #  9     ecut=    90.00 Ry     beta= 0.30
     Davidson diagonalization with overlap
     ethr =  2.79E-10,  avg # of iterations =  1.0

     total cpu time spent up to now is      327.5 secs

     End of self-consistent calculation

     Number of k-points >= 100: set verbosity='high' to print the bands.

     the Fermi energy is     0.8138 ev

!    total energy              =     -37.03451527 Ry
     Harris-Foulkes estimate   =     -37.03451527 Ry
     estimated scf accuracy    <          2.1E-09 Ry

     The total energy is the sum of the following terms:

     one-electron contribution =       3.30246355 Ry
     hartree contribution      =       0.34700963 Ry
     xc contribution           =     -29.07435909 Ry
     ewald contribution        =     -11.60923751 Ry
     smearing contrib. (-TS)   =      -0.00039185 Ry

     convergence has been achieved in   9 iterations

     Forces acting on atoms (cartesian axes, Ry/au):

     atom    1 type  1   force =     0.00000000   -0.00000000    0.00000000
     atom    2 type  1   force =     0.00000000    0.00000000   -0.00000000
     atom    3 type  1   force =     0.00000000    0.00000000    0.00000000

     Total force =     0.000000     Total SCF correction =     0.000000
     SCF correction compared to forces is large: reduce conv_thr to get better values


     Computing stress (Cartesian axis) and pressure

          total   stress  (Ry/bohr**3)                   (kbar)     P=  -67.49
  -0.00045853   0.00000000   0.00000000        -67.45      0.00      0.00
   0.00000000  -0.00045853  -0.00000000          0.00    -67.45     -0.00
   0.00000000   0.00000000  -0.00045937          0.00      0.00    -67.58


     Writing output data file Al_111_bulk.save/
 
     init_run     :     16.96s CPU     17.38s WALL (       1 calls)
     electrons    :    308.06s CPU    310.09s WALL (       1 calls)
     forces       :      3.99s CPU      4.01s WALL (       1 calls)
     stress       :     23.03s CPU     23.11s WALL (       1 calls)

     Called by init_run:
     wfcinit      :     16.10s CPU     16.50s WALL (       1 calls)
     potinit      :      0.04s CPU      0.05s WALL (       1 calls)
     hinit0       :      0.77s CPU      0.78s WALL (       1 calls)

     Called by electrons:
     c_bands      :    257.37s CPU    258.87s WALL (      10 calls)
     sum_band     :     50.09s CPU     50.54s WALL (      10 calls)
     v_of_rho     :      0.37s CPU      0.37s WALL (      10 calls)
     newd         :      0.08s CPU      0.12s WALL (      10 calls)
     mix_rho      :      0.19s CPU      0.22s WALL (      10 calls)

     Called by c_bands:
     init_us_2    :     25.38s CPU     25.61s WALL (   11040 calls)
     cegterg      :    232.85s CPU    233.84s WALL (    4800 calls)

     Called by sum_band:
     sum_band:bec :      0.03s CPU      0.03s WALL (    4800 calls)
     addusdens    :      0.09s CPU      0.11s WALL (      10 calls)

     Called by *egterg:
     h_psi        :    185.14s CPU    185.74s WALL (   14278 calls)
     s_psi        :      6.62s CPU      6.67s WALL (   14278 calls)
     g_psi        :      7.31s CPU      7.32s WALL (    8998 calls)
     cdiaghg      :      2.35s CPU      2.43s WALL (   13318 calls)

     Called by h_psi:
     h_psi:pot    :    182.61s CPU    183.18s WALL (   14278 calls)
     h_psi:calbec :      7.16s CPU      7.19s WALL (   14278 calls)
     vloc_psi     :    168.69s CPU    169.21s WALL (   14278 calls)
     add_vuspsi   :      6.67s CPU      6.71s WALL (   14278 calls)

     General routines
     calbec       :     11.17s CPU     11.22s WALL (   21478 calls)
     fft          :      0.09s CPU      0.10s WALL (     136 calls)
     ffts         :      0.08s CPU      0.08s WALL (     126 calls)
     fftw         :    172.14s CPU    172.66s WALL (  262904 calls)
 
     Parallel routines
 
     PWSCF        :   5m52.57s CPU   6m 6.03s WALL

 
   This run was terminated on:   1:10:57  28May2020            

=------------------------------------------------------------------------------=
   JOB DONE.
=------------------------------------------------------------------------------=
