
     Program PWSCF v.6.4.1 starts on 28May2020 at  1:15:37 

     This program is part of the open-source Quantum ESPRESSO suite
     for quantum simulation of materials; please cite
         "P. Giannozzi et al., J. Phys.:Condens. Matter 21 395502 (2009);
         "P. Giannozzi et al., J. Phys.:Condens. Matter 29 465901 (2017);
          URL http://www.quantum-espresso.org", 
     in publications or presentations arising from this work. More details at
     http://www.quantum-espresso.org/quote

     Parallel version (MPI & OpenMP), running on       1 processor cores
     Number of MPI processes:                 1
     Threads/MPI process:                     1

     MPI processes distributed on     1 nodes
     Reading input from Al_111_bulk_90_7.56.pw.in
Warning: card  &IONS ignored
Warning: card   ION_DYNAMICS = 'BFGS', ignored
Warning: card  / ignored
Warning: card  &CELL ignored
Warning: card  / ignored

     Current dimensions of program PWSCF are:
     Max number of different atomic species (ntypx) = 10
     Max number of k-points (npk) =  40000
     Max angular momentum in pseudopotentials (lmaxx) =  3

     Subspace diagonalization in iterative solution of the eigenvalue problem:
     a serial algorithm will be used

     Found symmetry operation: I + (  0.3333 -0.3333  0.3333)
     This is a supercell, fractional translations are disabled
 
     G-vector sticks info
     --------------------
     sticks:   dense  smooth     PW     G-vecs:    dense   smooth      PW
     Sum         583     583    421                28327    28327   16789
 


     bravais-lattice index     =            4
     lattice parameter (alat)  =       7.5600  a.u.
     unit-cell volume          =     916.5827 (a.u.)^3
     number of atoms/cell      =            3
     number of atomic types    =            1
     number of electrons       =         9.00
     number of Kohn-Sham states=            9
     kinetic-energy cutoff     =      90.0000  Ry
     charge density cutoff     =     150.0000  Ry
     convergence threshold     =      1.0E-08
     mixing beta               =       0.3000
     number of iterations used =            8  local-TF  mixing
     Exchange-correlation      =  SLA  PW   PBE  PBE ( 1  4  3  4 0 0)

     celldm(1)=   7.560000  celldm(2)=   0.000000  celldm(3)=   2.449490
     celldm(4)=   0.000000  celldm(5)=   0.000000  celldm(6)=   0.000000

     crystal axes: (cart. coord. in units of alat)
               a(1) = (   1.000000   0.000000   0.000000 )  
               a(2) = (  -0.500000   0.866025   0.000000 )  
               a(3) = (   0.000000   0.000000   2.449490 )  

     reciprocal axes: (cart. coord. in units 2 pi/alat)
               b(1) = (  1.000000  0.577350  0.000000 )  
               b(2) = (  0.000000  1.154701  0.000000 )  
               b(3) = (  0.000000  0.000000  0.408248 )  


     PseudoPot. # 1 for Al read from file:
     ./Al.pbe-n-van.UPF
     MD5 check sum: b11ded24487aef5bc42d5c7a2e22a7b6
     Pseudo is Ultrasoft + core correction, Zval =  3.0
     Generated by new atomic code, or converted to UPF format
     Using radial grid of  893 points,  2 beta functions with: 
                l(1) =   0
                l(2) =   1
     Q(r) pseudized with  8 coefficients,  rinner =    0.900   0.900   0.900


     atomic species   valence    mass     pseudopotential
        Al             3.00    26.98000     Al( 1.00)

     12 Sym. Ops., with inversion, found



   Cartesian axes

     site n.     atom                  positions (alat units)
         1           Al  tau(   1) = (   0.0000000   0.0000000   0.0000000  )
         2           Al  tau(   2) = (  -0.0000000   0.5773503   0.8164966  )
         3           Al  tau(   3) = (   0.5000000   0.2886751   1.6329932  )

     number of k points=   480  Marzari-Vanderbilt smearing, width (Ry)=  0.0250

     Number of k-points >= 100: set verbosity='high' to print them.

     Dense  grid:    28327 G-vectors     FFT dimensions: (  30,  30,  75)

     Estimated max dynamical RAM per process >     913.76 MB

     Initial potential from superposition of free atoms

     starting charge    8.99260, renormalised to    9.00000
     Starting wfcs are   12 randomized atomic wfcs

     total cpu time spent up to now is       17.4 secs

     Self-consistent Calculation

     iteration #  1     ecut=    90.00 Ry     beta= 0.30
     Davidson diagonalization with overlap
     ethr =  1.00E-02,  avg # of iterations =  2.6

     Threshold (ethr) on eigenvalues was too large:
     Diagonalizing with lowered threshold

     Davidson diagonalization with overlap
     ethr =  1.14E-04,  avg # of iterations =  2.7

     total cpu time spent up to now is       86.5 secs

     total energy              =     -37.03250898 Ry
     Harris-Foulkes estimate   =     -37.03312440 Ry
     estimated scf accuracy    <       0.01038213 Ry

     iteration #  2     ecut=    90.00 Ry     beta= 0.30
     Davidson diagonalization with overlap
     ethr =  1.15E-04,  avg # of iterations =  1.0

     total cpu time spent up to now is      113.1 secs

     total energy              =     -37.03069545 Ry
     Harris-Foulkes estimate   =     -37.03256419 Ry
     estimated scf accuracy    <       0.00696905 Ry

     iteration #  3     ecut=    90.00 Ry     beta= 0.30
     Davidson diagonalization with overlap
     ethr =  7.74E-05,  avg # of iterations =  1.0

     total cpu time spent up to now is      139.0 secs

     total energy              =     -37.03116320 Ry
     Harris-Foulkes estimate   =     -37.03115268 Ry
     estimated scf accuracy    <       0.00001514 Ry

     iteration #  4     ecut=    90.00 Ry     beta= 0.30
     Davidson diagonalization with overlap
     ethr =  1.68E-07,  avg # of iterations =  4.3

     total cpu time spent up to now is      185.2 secs

     total energy              =     -37.03120647 Ry
     Harris-Foulkes estimate   =     -37.03120631 Ry
     estimated scf accuracy    <       0.00000654 Ry

     iteration #  5     ecut=    90.00 Ry     beta= 0.30
     Davidson diagonalization with overlap
     ethr =  7.26E-08,  avg # of iterations =  1.0

     total cpu time spent up to now is      211.2 secs

     total energy              =     -37.03120706 Ry
     Harris-Foulkes estimate   =     -37.03120682 Ry
     estimated scf accuracy    <       0.00000061 Ry

     iteration #  6     ecut=    90.00 Ry     beta= 0.30
     Davidson diagonalization with overlap
     ethr =  6.80E-09,  avg # of iterations =  2.1

     total cpu time spent up to now is      244.0 secs

     total energy              =     -37.03120697 Ry
     Harris-Foulkes estimate   =     -37.03120738 Ry
     estimated scf accuracy    <       0.00000117 Ry

     iteration #  7     ecut=    90.00 Ry     beta= 0.30
     Davidson diagonalization with overlap
     ethr =  6.80E-09,  avg # of iterations =  2.0

     total cpu time spent up to now is      276.6 secs

     total energy              =     -37.03120713 Ry
     Harris-Foulkes estimate   =     -37.03120720 Ry
     estimated scf accuracy    <       0.00000029 Ry

     iteration #  8     ecut=    90.00 Ry     beta= 0.30
     Davidson diagonalization with overlap
     ethr =  3.20E-09,  avg # of iterations =  1.0

     total cpu time spent up to now is      302.6 secs

     total energy              =     -37.03120713 Ry
     Harris-Foulkes estimate   =     -37.03120714 Ry
     estimated scf accuracy    <       0.00000003 Ry

     iteration #  9     ecut=    90.00 Ry     beta= 0.30
     Davidson diagonalization with overlap
     ethr =  3.30E-10,  avg # of iterations =  1.0

     total cpu time spent up to now is      328.5 secs

     End of self-consistent calculation

     Number of k-points >= 100: set verbosity='high' to print the bands.

     the Fermi energy is     0.7824 ev

!    total energy              =     -37.03120713 Ry
     Harris-Foulkes estimate   =     -37.03120713 Ry
     estimated scf accuracy    <          2.3E-09 Ry

     The total energy is the sum of the following terms:

     one-electron contribution =       3.26474795 Ry
     hartree contribution      =       0.35324715 Ry
     xc contribution           =     -29.07022218 Ry
     ewald contribution        =     -11.57852524 Ry
     smearing contrib. (-TS)   =      -0.00045481 Ry

     convergence has been achieved in   9 iterations

     Forces acting on atoms (cartesian axes, Ry/au):

     atom    1 type  1   force =     0.00000000   -0.00000000    0.00000000
     atom    2 type  1   force =     0.00000000    0.00000000    0.00000001
     atom    3 type  1   force =     0.00000000    0.00000000   -0.00000001

     Total force =     0.000000     Total SCF correction =     0.000000
     SCF correction compared to forces is large: reduce conv_thr to get better values


     Computing stress (Cartesian axis) and pressure

          total   stress  (Ry/bohr**3)                   (kbar)     P=  -66.70
  -0.00045316   0.00000000   0.00000000        -66.66      0.00      0.00
   0.00000000  -0.00045316  -0.00000000          0.00    -66.66     -0.00
   0.00000000  -0.00000000  -0.00045396          0.00     -0.00    -66.78


     Writing output data file Al_111_bulk.save/
 
     init_run     :     17.00s CPU     17.41s WALL (       1 calls)
     electrons    :    309.13s CPU    311.10s WALL (       1 calls)
     forces       :      4.02s CPU      4.03s WALL (       1 calls)
     stress       :     23.25s CPU     23.30s WALL (       1 calls)

     Called by init_run:
     wfcinit      :     16.15s CPU     16.52s WALL (       1 calls)
     potinit      :      0.04s CPU      0.05s WALL (       1 calls)
     hinit0       :      0.77s CPU      0.80s WALL (       1 calls)

     Called by electrons:
     c_bands      :    258.35s CPU    259.81s WALL (      10 calls)
     sum_band     :     50.18s CPU     50.60s WALL (      10 calls)
     v_of_rho     :      0.36s CPU      0.38s WALL (      10 calls)
     newd         :      0.09s CPU      0.11s WALL (      10 calls)
     mix_rho      :      0.20s CPU      0.22s WALL (      10 calls)

     Called by c_bands:
     init_us_2    :     25.65s CPU     25.87s WALL (   11040 calls)
     cegterg      :    233.45s CPU    234.39s WALL (    4800 calls)

     Called by sum_band:
     sum_band:bec :      0.03s CPU      0.03s WALL (    4800 calls)
     addusdens    :      0.08s CPU      0.12s WALL (      10 calls)

     Called by *egterg:
     h_psi        :    184.53s CPU    185.09s WALL (   14264 calls)
     s_psi        :      6.71s CPU      6.75s WALL (   14264 calls)
     g_psi        :      7.37s CPU      7.38s WALL (    8984 calls)
     cdiaghg      :      2.40s CPU      2.47s WALL (   13304 calls)

     Called by h_psi:
     h_psi:pot    :    181.82s CPU    182.37s WALL (   14264 calls)
     h_psi:calbec :      7.23s CPU      7.26s WALL (   14264 calls)
     vloc_psi     :    167.80s CPU    168.29s WALL (   14264 calls)
     add_vuspsi   :      6.72s CPU      6.75s WALL (   14264 calls)

     General routines
     calbec       :     11.25s CPU     11.30s WALL (   21464 calls)
     fft          :      0.09s CPU      0.10s WALL (     136 calls)
     ffts         :      0.08s CPU      0.08s WALL (     126 calls)
     fftw         :    171.21s CPU    171.70s WALL (  262862 calls)
 
     Parallel routines
 
     PWSCF        :   5m53.94s CPU   6m 5.80s WALL

 
   This run was terminated on:   1:21:43  28May2020            

=------------------------------------------------------------------------------=
   JOB DONE.
=------------------------------------------------------------------------------=
