--------------------------------------------------------------------------
[[18484,1],0]: A high-performance Open MPI point-to-point messaging module
was unable to find any relevant network interfaces:

Module: OpenFabrics (openib)
  Host: ubuntu

Another transport will be used instead, although this may result in
lower performance.
--------------------------------------------------------------------------

     Program PWSCF v.5.1 starts on 29May2020 at  0:20:29 

     This program is part of the open-source Quantum ESPRESSO suite
     for quantum simulation of materials; please cite
         "P. Giannozzi et al., J. Phys.:Condens. Matter 21 395502 (2009);
          URL http://www.quantum-espresso.org", 
     in publications or presentations arising from this work. More details at
     http://www.quantum-espresso.org/quote

     Parallel version (MPI), running on     1 processors
     Reading input from Al_100_surf_slab_3.pw.in

     Current dimensions of program PWSCF are:
     Max number of different atomic species (ntypx) = 10
     Max number of k-points (npk) =  40000
     Max angular momentum in pseudopotentials (lmaxx) =  3

     Subspace diagonalization in iterative solution of the eigenvalue problem:
     a serial algorithm will be used

     Found symmetry operation: I + ( -0.5000 -0.5000  0.0000)
     This is a supercell, fractional translations are disabled

     G-vector sticks info
     --------------------
     sticks:   dense  smooth     PW     G-vecs:    dense   smooth      PW
     Sum         681     681    421                95431    95431   45117



     bravais-lattice index     =            6
     lattice parameter (alat)  =       7.6050  a.u.
     unit-cell volume          =    3078.9008 (a.u.)^3
     number of atoms/cell      =           12
     number of atomic types    =            1
     number of electrons       =        36.00
     number of Kohn-Sham states=           22
     kinetic-energy cutoff     =      80.0000  Ry
     charge density cutoff     =     150.0000  Ry
     convergence threshold     =      1.0E-06
     mixing beta               =       0.3000
     number of iterations used =            8  local-TF  mixing
     Exchange-correlation      =  SLA  PW   PBE  PBE ( 1  4  3  4 0)
     nstep                     =           50


     celldm(1)=   7.605000  celldm(2)=   0.000000  celldm(3)=   7.000000
     celldm(4)=   0.000000  celldm(5)=   0.000000  celldm(6)=   0.000000

     crystal axes: (cart. coord. in units of alat)
               a(1) = (   1.000000   0.000000   0.000000 )  
               a(2) = (   0.000000   1.000000   0.000000 )  
               a(3) = (   0.000000   0.000000   7.000000 )  

     reciprocal axes: (cart. coord. in units 2 pi/alat)
               b(1) = (  1.000000  0.000000  0.000000 )  
               b(2) = (  0.000000  1.000000  0.000000 )  
               b(3) = (  0.000000  0.000000  0.142857 )  


     PseudoPot. # 1 for Al read from file:
     ./Al.pbe-n-van.UPF
     MD5 check sum: b11ded24487aef5bc42d5c7a2e22a7b6
     Pseudo is Ultrasoft + core correction, Zval =  3.0
     Generated by new atomic code, or converted to UPF format
     Using radial grid of  893 points,  2 beta functions with: 
                l(1) =   0
                l(2) =   1
     Q(r) pseudized with  8 coefficients,  rinner =    0.900   0.900   0.900


     atomic species   valence    mass     pseudopotential
        Al             3.00    26.98000     Al( 1.00)

      8 Sym. Ops. (no inversion) found



   Cartesian axes

     site n.     atom                  positions (alat units)
         1           Al  tau(   1) = (   0.0000000   0.0000000   0.0000000  )
         2           Al  tau(   2) = (   0.5000000   0.5000000   0.0000000  )
         3           Al  tau(   3) = (   0.5000000   0.0000000   0.5000000  )
         4           Al  tau(   4) = (   0.0000000   0.5000000   0.5000000  )
         5           Al  tau(   5) = (   0.0000000   0.0000000   1.0000000  )
         6           Al  tau(   6) = (   0.5000000   0.5000000   1.0000000  )
         7           Al  tau(   7) = (   0.5000000   0.0000000   1.5000000  )
         8           Al  tau(   8) = (   0.0000000   0.5000000   1.5000000  )
         9           Al  tau(   9) = (   0.0000000   0.0000000   2.0000000  )
        10           Al  tau(  10) = (   0.5000000   0.5000000   2.0000000  )
        11           Al  tau(  11) = (   0.5000000   0.0000000   2.5000000  )
        12           Al  tau(  12) = (   0.0000000   0.5000000   2.5000000  )

     number of k points=    45  Marzari-Vanderbilt smearing, width (Ry)=  0.0250
                       cart. coord. in units 2pi/alat
        k(    1) = (   0.0000000   0.0000000   0.0000000), wk =   0.0078125
        k(    2) = (   0.0000000   0.0625000   0.0000000), wk =   0.0312500
        k(    3) = (   0.0000000   0.1250000   0.0000000), wk =   0.0312500
        k(    4) = (   0.0000000   0.1875000   0.0000000), wk =   0.0312500
        k(    5) = (   0.0000000   0.2500000   0.0000000), wk =   0.0312500
        k(    6) = (   0.0000000   0.3125000   0.0000000), wk =   0.0312500
        k(    7) = (   0.0000000   0.3750000   0.0000000), wk =   0.0312500
        k(    8) = (   0.0000000   0.4375000   0.0000000), wk =   0.0312500
        k(    9) = (   0.0000000  -0.5000000   0.0000000), wk =   0.0156250
        k(   10) = (   0.0625000   0.0625000   0.0000000), wk =   0.0312500
        k(   11) = (   0.0625000   0.1250000   0.0000000), wk =   0.0625000
        k(   12) = (   0.0625000   0.1875000   0.0000000), wk =   0.0625000
        k(   13) = (   0.0625000   0.2500000   0.0000000), wk =   0.0625000
        k(   14) = (   0.0625000   0.3125000   0.0000000), wk =   0.0625000
        k(   15) = (   0.0625000   0.3750000   0.0000000), wk =   0.0625000
        k(   16) = (   0.0625000   0.4375000   0.0000000), wk =   0.0625000
        k(   17) = (   0.0625000  -0.5000000   0.0000000), wk =   0.0312500
        k(   18) = (   0.1250000   0.1250000   0.0000000), wk =   0.0312500
        k(   19) = (   0.1250000   0.1875000   0.0000000), wk =   0.0625000
        k(   20) = (   0.1250000   0.2500000   0.0000000), wk =   0.0625000
        k(   21) = (   0.1250000   0.3125000   0.0000000), wk =   0.0625000
        k(   22) = (   0.1250000   0.3750000   0.0000000), wk =   0.0625000
        k(   23) = (   0.1250000   0.4375000   0.0000000), wk =   0.0625000
        k(   24) = (   0.1250000  -0.5000000   0.0000000), wk =   0.0312500
        k(   25) = (   0.1875000   0.1875000   0.0000000), wk =   0.0312500
        k(   26) = (   0.1875000   0.2500000   0.0000000), wk =   0.0625000
        k(   27) = (   0.1875000   0.3125000   0.0000000), wk =   0.0625000
        k(   28) = (   0.1875000   0.3750000   0.0000000), wk =   0.0625000
        k(   29) = (   0.1875000   0.4375000   0.0000000), wk =   0.0625000
        k(   30) = (   0.1875000  -0.5000000   0.0000000), wk =   0.0312500
        k(   31) = (   0.2500000   0.2500000   0.0000000), wk =   0.0312500
        k(   32) = (   0.2500000   0.3125000   0.0000000), wk =   0.0625000
        k(   33) = (   0.2500000   0.3750000   0.0000000), wk =   0.0625000
        k(   34) = (   0.2500000   0.4375000   0.0000000), wk =   0.0625000
        k(   35) = (   0.2500000  -0.5000000   0.0000000), wk =   0.0312500
        k(   36) = (   0.3125000   0.3125000   0.0000000), wk =   0.0312500
        k(   37) = (   0.3125000   0.3750000   0.0000000), wk =   0.0625000
        k(   38) = (   0.3125000   0.4375000   0.0000000), wk =   0.0625000
        k(   39) = (   0.3125000  -0.5000000   0.0000000), wk =   0.0312500
        k(   40) = (   0.3750000   0.3750000   0.0000000), wk =   0.0312500
        k(   41) = (   0.3750000   0.4375000   0.0000000), wk =   0.0625000
        k(   42) = (   0.3750000  -0.5000000   0.0000000), wk =   0.0312500
        k(   43) = (   0.4375000   0.4375000   0.0000000), wk =   0.0312500
        k(   44) = (   0.4375000  -0.5000000   0.0000000), wk =   0.0312500
        k(   45) = (  -0.5000000  -0.5000000   0.0000000), wk =   0.0078125

     Dense  grid:    95431 G-vectors     FFT dimensions: (  30,  30, 216)

     Largest allocated arrays     est. size (Mb)     dimensions
        Kohn-Sham Wavefunctions        12.52 Mb     (   37302,   22)
        NL pseudopotentials            27.32 Mb     (   37302,   48)
        Each V/rho on FFT grid          2.97 Mb     (  194400)
        Each G-vector array             0.73 Mb     (   95431)
        G-vector shells                 0.03 Mb     (    3463)
     Largest temporary arrays     est. size (Mb)     dimensions
        Auxiliary wavefunctions        50.09 Mb     (   37302,   88)
        Each subspace H/S matrix        0.12 Mb     (      88,   88)
        Each <psi_i|beta_j> matrix      0.02 Mb     (      48,   22)
        Arrays for rho mixing          23.73 Mb     (  194400,    8)

     Initial potential from superposition of free atoms

     starting charge   35.97042, renormalised to   36.00000

     negative rho (up, down):  4.485E-05 0.000E+00
     Starting wfc are   48 randomized atomic wfcs

     total cpu time spent up to now is       84.1 secs

     per-process dynamical memory:   655.1 Mb

     Self-consistent Calculation

     iteration #  1     ecut=    80.00 Ry     beta=0.30
     Davidson diagonalization with overlap
     ethr =  1.00E-02,  avg # of iterations =  2.7

     total cpu time spent up to now is      217.8 secs

     total energy              =    -149.52535306 Ry
     Harris-Foulkes estimate   =    -149.56527750 Ry
     estimated scf accuracy    <       0.94344312 Ry

     iteration #  2     ecut=    80.00 Ry     beta=0.30
     Davidson diagonalization with overlap
     ethr =  2.62E-03,  avg # of iterations =  1.0

     negative rho (up, down):  2.000E-04 0.000E+00

     total cpu time spent up to now is      299.0 secs

     total energy              =    -149.36966042 Ry
     Harris-Foulkes estimate   =    -149.53489030 Ry
     estimated scf accuracy    <       0.73183162 Ry

     iteration #  3     ecut=    80.00 Ry     beta=0.30
     Davidson diagonalization with overlap
     ethr =  2.03E-03,  avg # of iterations =  2.2

     total cpu time spent up to now is      392.3 secs

     total energy              =    -149.43566322 Ry
     Harris-Foulkes estimate   =    -149.50148407 Ry
     estimated scf accuracy    <       0.40751627 Ry

     iteration #  4     ecut=    80.00 Ry     beta=0.30
     Davidson diagonalization with overlap
     ethr =  1.13E-03,  avg # of iterations =  2.0

     total cpu time spent up to now is      482.0 secs

     total energy              =    -149.46444907 Ry
     Harris-Foulkes estimate   =    -149.46448842 Ry
     estimated scf accuracy    <       0.02010451 Ry

     iteration #  5     ecut=    80.00 Ry     beta=0.30
     Davidson diagonalization with overlap
     ethr =  5.58E-05,  avg # of iterations =  3.4

     total cpu time spent up to now is      581.0 secs

     total energy              =    -149.45920139 Ry
     Harris-Foulkes estimate   =    -149.46639058 Ry
     estimated scf accuracy    <       0.01925618 Ry

     iteration #  6     ecut=    80.00 Ry     beta=0.30
     Davidson diagonalization with overlap
     ethr =  5.35E-05,  avg # of iterations =  2.7

     total cpu time spent up to now is      672.9 secs

     total energy              =    -149.46170356 Ry
     Harris-Foulkes estimate   =    -149.46164881 Ry
     estimated scf accuracy    <       0.03738651 Ry

     iteration #  7     ecut=    80.00 Ry     beta=0.30
     Davidson diagonalization with overlap
     ethr =  5.35E-05,  avg # of iterations =  1.0

     negative rho (up, down):  6.543E-03 0.000E+00

     total cpu time spent up to now is      758.1 secs

     total energy              =    -149.45731360 Ry
     Harris-Foulkes estimate   =    -149.46186247 Ry
     estimated scf accuracy    <       0.02875079 Ry

     iteration #  8     ecut=    80.00 Ry     beta=0.30
     Davidson diagonalization with overlap
     ethr =  5.35E-05,  avg # of iterations =  2.3

     negative rho (up, down):  4.680E-03 0.000E+00

     total cpu time spent up to now is      852.6 secs

     total energy              =    -149.45967243 Ry
     Harris-Foulkes estimate   =    -149.45987270 Ry
     estimated scf accuracy    <       0.00376606 Ry

     iteration #  9     ecut=    80.00 Ry     beta=0.30
     Davidson diagonalization with overlap
     ethr =  1.05E-05,  avg # of iterations =  1.4

     negative rho (up, down):  1.887E-02 0.000E+00

     total cpu time spent up to now is      935.9 secs

     total energy              =    -149.45873060 Ry
     Harris-Foulkes estimate   =    -149.45977774 Ry
     estimated scf accuracy    <       0.00276065 Ry

     iteration # 10     ecut=    80.00 Ry     beta=0.30
     Davidson diagonalization with overlap
     ethr =  7.67E-06,  avg # of iterations =  3.1

     negative rho (up, down):  1.749E-02 0.000E+00

     total cpu time spent up to now is     1058.3 secs

     total energy              =    -149.45977943 Ry
     Harris-Foulkes estimate   =    -149.46013977 Ry
     estimated scf accuracy    <       0.01686076 Ry

     iteration # 11     ecut=    80.00 Ry     beta=0.30
     Davidson diagonalization with overlap
     ethr =  7.67E-06,  avg # of iterations =  1.0

     negative rho (up, down):  3.652E-03 0.000E+00

     total cpu time spent up to now is     1141.1 secs

     total energy              =    -149.45854870 Ry
     Harris-Foulkes estimate   =    -149.45980690 Ry
     estimated scf accuracy    <       0.01285414 Ry

     iteration # 12     ecut=    80.00 Ry     beta=0.30
     Davidson diagonalization with overlap
     ethr =  7.67E-06,  avg # of iterations =  2.0

     negative rho (up, down):  2.762E-03 0.000E+00

     total cpu time spent up to now is     1235.9 secs

     total energy              =    -149.45908142 Ry
     Harris-Foulkes estimate   =    -149.45905941 Ry
     estimated scf accuracy    <       0.00084740 Ry

     iteration # 13     ecut=    80.00 Ry     beta=0.30
     Davidson diagonalization with overlap
     ethr =  2.35E-06,  avg # of iterations =  1.0

     negative rho (up, down):  1.001E-03 0.000E+00

     total cpu time spent up to now is     1319.8 secs

     total energy              =    -149.45916810 Ry
     Harris-Foulkes estimate   =    -149.45909105 Ry
     estimated scf accuracy    <       0.00105489 Ry

     iteration # 14     ecut=    80.00 Ry     beta=0.30
     Davidson diagonalization with overlap
     ethr =  2.35E-06,  avg # of iterations =  2.0

     negative rho (up, down):  9.631E-04 0.000E+00

     total cpu time spent up to now is     1412.3 secs

     total energy              =    -149.45921663 Ry
     Harris-Foulkes estimate   =    -149.45923480 Ry
     estimated scf accuracy    <       0.00331247 Ry

     iteration # 15     ecut=    80.00 Ry     beta=0.30
     Davidson diagonalization with overlap
     ethr =  2.35E-06,  avg # of iterations =  1.0

     negative rho (up, down):  9.451E-04 0.000E+00

     total cpu time spent up to now is     1495.6 secs

     total energy              =    -149.45905933 Ry
     Harris-Foulkes estimate   =    -149.45922022 Ry
     estimated scf accuracy    <       0.00312947 Ry

     iteration # 16     ecut=    80.00 Ry     beta=0.30
     Davidson diagonalization with overlap
     ethr =  2.35E-06,  avg # of iterations =  1.0

     negative rho (up, down):  9.309E-04 0.000E+00

     total cpu time spent up to now is     1578.8 secs

     total energy              =    -149.45894686 Ry
     Harris-Foulkes estimate   =    -149.45909242 Ry
     estimated scf accuracy    <       0.00115131 Ry

     iteration # 17     ecut=    80.00 Ry     beta=0.30
     Davidson diagonalization with overlap
     ethr =  2.35E-06,  avg # of iterations =  2.2

     negative rho (up, down):  6.510E-04 0.000E+00

     total cpu time spent up to now is     1675.8 secs

     total energy              =    -149.45902030 Ry
     Harris-Foulkes estimate   =    -149.45902583 Ry
     estimated scf accuracy    <       0.00001000 Ry

     iteration # 18     ecut=    80.00 Ry     beta=0.30
     Davidson diagonalization with overlap
     ethr =  2.78E-08,  avg # of iterations =  3.2

     negative rho (up, down):  1.364E-04 0.000E+00

     total cpu time spent up to now is     1783.2 secs

     total energy              =    -149.45902007 Ry
     Harris-Foulkes estimate   =    -149.45902234 Ry
     estimated scf accuracy    <       0.00000334 Ry

     iteration # 19     ecut=    80.00 Ry     beta=0.30
     Davidson diagonalization with overlap
     ethr =  9.29E-09,  avg # of iterations =  3.0

     negative rho (up, down):  7.746E-05 0.000E+00

     total cpu time spent up to now is     1891.7 secs

     total energy              =    -149.45901963 Ry
     Harris-Foulkes estimate   =    -149.45902131 Ry
     estimated scf accuracy    <       0.00000992 Ry

     iteration # 20     ecut=    80.00 Ry     beta=0.30
     Davidson diagonalization with overlap
     ethr =  9.29E-09,  avg # of iterations =  2.2

     negative rho (up, down):  6.039E-06 0.000E+00

     total cpu time spent up to now is     1985.5 secs

     End of self-consistent calculation

          k = 0.0000 0.0000 0.0000 ( 37267 PWs)   bands (ev):

    -9.9654  -9.2941  -8.1935  -6.7119  -4.8860  -2.6952  -1.6972  -1.6972
    -1.1631  -1.0800  -1.0800  -0.3292  -0.3292  -0.0621  -0.0621   0.3058
     0.3058   1.3223   1.3223   1.4513   1.4513   1.6804

          k = 0.0000 0.0625 0.0000 ( 37205 PWs)   bands (ev):

    -9.9296  -9.2585  -8.1581  -6.6768  -4.8512  -2.6607  -2.2660  -1.6644
    -1.6370  -1.1300  -1.0472  -0.6082  -0.2937  -0.0293   0.2761   0.3958
     0.7761   0.9123   1.3550   1.5442   1.7130   2.0072

          k = 0.0000 0.1250 0.0000 ( 37193 PWs)   bands (ev):

    -9.8224  -9.1517  -8.0521  -6.5717  -4.7471  -3.1678  -2.5573  -2.5292
    -1.5660  -1.4831  -1.0306  -0.9488  -0.2336  -0.0175   0.0691   0.4675
     1.3872   1.4533   1.5130   1.7048   1.8105   2.0991

          k = 0.0000 0.1875 0.0000 ( 37198 PWs)   bands (ev):

    -9.6439  -8.9739  -7.8755  -6.3966  -4.5738  -4.0650  -3.4202  -2.3853
    -2.3630  -1.4019  -0.9445  -0.8650  -0.7847  -0.0041   0.2331   0.5555
     0.9411   1.6170   1.7211   1.9708   2.5691   2.9481

          k = 0.0000 0.2500 0.0000 ( 37192 PWs)   bands (ev):

    -9.3944  -8.7254  -7.6286  -6.1518  -4.9148  -4.3315  -4.2652  -3.2000
    -2.1451  -1.7669  -1.1722  -0.6334  -0.5550  -0.0210   0.2223   0.4627
     0.9433   1.8463   1.9097   2.1881   2.2442   3.0325

          k = 0.0000 0.3125 0.0000 ( 37174 PWs)   bands (ev):

    -9.0743  -8.4066  -7.3118  -5.8377  -5.7062  -5.0528  -4.0206  -3.9811
    -2.5386  -1.8374  -0.8768  -0.7666  -0.3360  -0.2596   0.4948   0.7579
     1.2322   1.4422   2.1410   2.2768   2.3089   2.4425

          k = 0.0000 0.3750 0.0000 ( 37172 PWs)   bands (ev):

    -8.6839  -8.0178  -6.9255  -6.4349  -5.7782  -5.4548  -4.7011  -3.6418
    -3.2510  -1.4659  -1.4633  -0.5156   0.0267   0.1014   0.5502   1.0792
     1.1187   1.5868   1.5942   2.1178   2.2030   2.5011

          k = 0.0000 0.4375 0.0000 ( 37222 PWs)   bands (ev):

    -8.2239  -7.5597  -7.0984  -6.4704  -6.4388  -5.3571  -5.0037  -3.9006
    -3.1958  -2.1061  -1.0244  -0.0887   0.0275   0.4542   0.5282   0.9625
     1.4035   1.4937   1.5452   1.5790   2.0406   2.3505

          k = 0.0000-0.5000 0.0000 ( 37186 PWs)   bands (ev):

    -7.6951  -7.6951  -7.0330  -7.0330  -5.9473  -5.9473  -4.4853  -4.4853
    -2.6834  -2.6834  -0.5242  -0.5242   0.4040   0.4040   0.9449   0.9449
     1.0208   1.0208   1.8659   1.8659   2.0372   2.0372

          k = 0.0625 0.0625 0.0000 ( 37181 PWs)   bands (ev):

    -9.8939  -9.2229  -8.1228  -6.6418  -4.8165  -2.6262  -2.2328  -2.2328
    -1.6042  -1.6042  -1.0968  -0.5676  -0.5676   0.3296   0.3297   0.8347
     0.8347   0.9779   0.9779   1.7454   2.0815   2.0815

          k = 0.0625 0.1250 0.0000 ( 37200 PWs)   bands (ev):

    -9.7867  -9.1161  -8.0167  -6.5366  -4.7124  -3.1340  -2.5229  -2.4964
    -2.1318  -1.5387  -1.4090  -0.9975  -0.4712  -0.0346   0.4546   0.9232
     1.0626   1.4349   1.7590   1.8413   1.9381   2.2792

          k = 0.0625 0.1875 0.0000 ( 37177 PWs)   bands (ev):

    -9.6083  -8.9384  -7.8402  -6.3616  -4.5391  -4.0308  -3.3864  -2.3510
    -2.3309  -1.9662  -1.3310  -0.9073  -0.8320  -0.2913   0.6119   0.7994
     1.1138   1.3275   1.9956   2.2948   2.7345   3.1108

          k = 0.0625 0.2500 0.0000 ( 37203 PWs)   bands (ev):

    -9.3588  -8.6900  -7.5933  -6.1168  -4.8803  -4.2969  -4.2310  -3.1664
    -2.1110  -1.7763  -1.6865  -1.1016  -0.6005  -0.0627   0.0319   0.8329
     1.3353   1.5286   2.1599   2.1643   2.5933   2.6013

          k = 0.0625 0.3125 0.0000 ( 37175 PWs)   bands (ev):

    -9.0387  -8.3712  -7.2766  -5.8028  -5.6715  -5.0183  -3.9862  -3.9470
    -2.5055  -1.8037  -1.4298  -0.8441  -0.6814  -0.3034   0.2334   1.0499
     1.5447   1.6261   1.7275   1.8235   2.3724   2.5555

          k = 0.0625 0.3750 0.0000 ( 37193 PWs)   bands (ev):

    -8.6485  -7.9825  -6.8904  -6.4000  -5.7434  -5.4200  -4.6667  -3.6075
    -3.2171  -1.4346  -1.4303  -1.0665  -0.4266   0.0590   0.5674   0.7218
     1.0573   1.5866   1.6854   1.9337   2.1552   2.2569

          k = 0.0625 0.4375 0.0000 ( 37206 PWs)   bands (ev):

    -8.1886  -7.5245  -7.0633  -6.4355  -6.4039  -5.3225  -4.9691  -3.8663
    -3.1616  -2.0728  -0.9936  -0.6434   0.0019   0.0914   0.4379   0.4850
     1.0356   1.0611   1.5223   1.9805   2.0851   2.4430

          k = 0.0625-0.5000 0.0000 ( 37210 PWs)   bands (ev):

    -7.6599  -7.6599  -6.9980  -6.9980  -5.9125  -5.9125  -4.4508  -4.4508
    -2.6496  -2.6496  -0.5118  -0.5118  -0.1024  -0.1024   0.4967   0.4967
     0.9779   0.9779   1.5279   1.5279   2.4383   2.4383

          k = 0.1250 0.1250 0.0000 ( 37179 PWs)   bands (ev):

    -9.6796  -9.0095  -7.9108  -6.4316  -4.6084  -3.0328  -3.0328  -2.4198
    -2.3961  -2.3961  -1.3400  -1.3400  -0.8983   0.0716   0.0716   1.5204
     1.5204   1.7775   1.7775   1.9293   2.2090   2.2090

          k = 0.1250 0.1875 0.0000 ( 37156 PWs)   bands (ev):

    -9.5013  -8.8319  -7.7343  -6.2566  -4.4353  -3.9284  -3.2855  -2.8625
    -2.2981  -2.2483  -2.1492  -1.1819  -0.7866  -0.7330   0.2331   0.9604
     1.6771   1.9637   2.0263   2.3509   2.5760   2.7180

          k = 0.1250 0.2500 0.0000 ( 37165 PWs)   bands (ev):

    -9.2521  -8.5836  -7.4877  -6.0121  -4.7770  -4.1933  -4.1284  -3.0666
    -2.6280  -2.0089  -1.9820  -1.6301  -0.9296  -0.5019   0.1210   0.4971
     1.6035   1.8333   2.1235   2.2676   2.4136   2.4997

          k = 0.1250 0.3125 0.0000 ( 37207 PWs)   bands (ev):

    -8.9322  -8.2651  -7.1712  -5.6984  -5.5675  -4.9148  -3.8829  -3.8448
    -2.4288  -2.2946  -1.7028  -1.6845  -0.6328  -0.6200  -0.2055   0.7781
     0.8832   1.4612   1.5189   2.2776   2.5058   2.5735

          k = 0.1250 0.3750 0.0000 ( 37189 PWs)   bands (ev):

    -8.5422  -7.8766  -6.7853  -6.2954  -5.6393  -5.3159  -4.5635  -3.5046
    -3.1159  -1.9497  -1.4029  -1.3327  -1.2328  -0.2690   0.1547   0.2007
     0.8209   0.8291   1.1319   1.8586   2.2719   2.6107

          k = 0.1250 0.4375 0.0000 ( 37163 PWs)   bands (ev):

    -8.0827  -7.4190  -6.9583  -6.3307  -6.2993  -5.2186  -4.8653  -3.7637
    -3.0593  -1.9742  -1.5172  -0.9159  -0.8663  -0.4058   0.0998   0.1942
     0.2704   0.5847   1.2357   1.4573   1.7645   2.6477

          k = 0.1250-0.5000 0.0000 ( 37170 PWs)   bands (ev):

    -7.5544  -7.5544  -6.8929  -6.8929  -5.8081  -5.8081  -4.3475  -4.3475
    -2.5482  -2.5482  -1.0298  -1.0298  -0.3684  -0.3684  -0.3577  -0.3577
     0.6765   0.6765   1.0630   1.0630   2.1000   2.1000

          k = 0.1875 0.1875 0.0000 ( 37147 PWs)   bands (ev):

    -9.3232  -8.6545  -7.5581  -6.0819  -4.2624  -3.7581  -3.7581  -3.1164
    -3.1164  -2.0775  -2.0501  -2.0501  -0.6284  -0.6284  -0.5682   1.1225
     1.1225   1.5517   2.2206   2.3580   2.8268   2.8269

          k = 0.1875 0.2500 0.0000 ( 37175 PWs)   bands (ev):

    -9.0743  -8.4066  -7.3118  -5.8377  -4.6051  -4.0208  -3.9585  -3.5181
    -2.9608  -2.8030  -1.8396  -1.8238  -1.4454  -0.4029  -0.3380   0.3218
     0.7750   1.3361   1.4133   2.3953   2.4442   2.6209

          k = 0.1875 0.3125 0.0000 ( 37186 PWs)   bands (ev):

    -8.7548  -8.0884  -6.9957  -5.5244  -5.3944  -4.7427  -3.7109  -3.6760
    -3.2139  -2.5627  -2.2315  -1.5370  -1.5048  -0.4738  -0.0658  -0.0440
     0.0293   0.6599   1.4692   1.6920   1.9006   2.8546

          k = 0.1875 0.3750 0.0000 ( 37171 PWs)   bands (ev):

    -8.3653  -7.7004  -6.6103  -6.1213  -5.4661  -5.1424  -4.3919  -3.3334
    -2.9669  -2.8136  -2.1957  -1.1863  -1.1546  -1.1387  -0.6441  -0.0424
     0.2806   0.3213   0.9696   1.0041   2.0846   2.4113

          k = 0.1875 0.4375 0.0000 ( 37190 PWs)   bands (ev):

    -7.9063  -7.2434  -6.7833  -6.1563  -6.1251  -5.0458  -4.6926  -3.5935
    -2.8893  -2.3956  -1.8610  -1.6883  -1.3392  -0.7065  -0.6907  -0.6723
     0.3683   0.3782   0.7002   0.7327   1.8092   1.8216

          k = 0.1875-0.5000 0.0000 ( 37202 PWs)   bands (ev):

    -7.3787  -7.3787  -6.7179  -6.7179  -5.6344  -5.6344  -4.1757  -4.1757
    -2.3810  -2.3810  -1.8937  -1.8937  -1.2393  -1.2393  -0.2884  -0.2884
    -0.1053  -0.1053   1.0721   1.0721   1.3974   1.3974

          k = 0.2500 0.2500 0.0000 ( 37217 PWs)   bands (ev):

    -8.8257  -8.1590  -7.0659  -5.5940  -4.3651  -4.3650  -3.7798  -3.7198
    -3.7198  -2.6472  -2.6472  -1.6052  -1.2201  -1.2201  -0.1103  -0.0304
     0.5426   0.5426   0.6010   1.6338   2.6597   2.6597

          k = 0.2500 0.3125 0.0000 ( 37224 PWs)   bands (ev):

    -8.5068  -7.8414  -6.7503  -5.2812  -5.1524  -4.5030  -4.0550  -3.4983
    -3.4707  -3.3392  -2.3506  -1.9823  -1.3219  -0.9275  -0.7685  -0.2030
    -0.1658   0.1893   0.8200   0.8828   1.9688   2.3032

          k = 0.2500 0.3750 0.0000 ( 37195 PWs)   bands (ev):

    -8.1179  -7.4541  -6.3656  -5.8779  -5.2240  -4.9001  -4.1535  -3.6810
    -3.0945  -3.0267  -2.7034  -1.9661  -1.5306  -0.9428  -0.8929  -0.8619
    -0.5183   0.1915   0.5342   1.0129   1.4641   1.6263

          k = 0.2500 0.4375 0.0000 ( 37231 PWs)   bands (ev):

    -7.6598  -6.9978  -6.5387  -5.9125  -5.8816  -4.8045  -4.4512  -3.3737
    -3.2126  -2.6531  -2.5899  -2.1526  -1.5595  -1.5305  -1.4969  -0.5537
    -0.3626  -0.1054   0.5750   0.8110   1.1452   1.7082

          k = 0.2500-0.5000 0.0000 ( 37208 PWs)   bands (ev):

    -7.1330  -7.1330  -6.4733  -6.4733  -5.3917  -5.3917  -3.9361  -3.9361
    -2.7234  -2.7234  -2.1918  -2.1918  -2.0223  -2.0223  -1.0298  -1.0298
     0.0364   0.0364   0.3809   0.3809   1.4953   1.4953

          k = 0.3125 0.3125 0.0000 ( 37223 PWs)   bands (ev):

    -8.1885  -7.5244  -6.4355  -4.9693  -4.8423  -4.8423  -4.1945  -4.1945
    -3.1629  -3.1180  -3.1179  -1.6873  -1.6873  -1.5950  -0.9607  -0.9259
     0.0831   0.0831   0.1284   0.4679   1.5643   2.2185

          k = 0.3125 0.3750 0.0000 ( 37249 PWs)   bands (ev):

    -7.8005  -7.1380  -6.0517  -5.5656  -4.9143  -4.5892  -4.4622  -3.9042
    -3.7465  -2.7894  -2.7506  -2.3891  -2.2835  -1.6275  -1.3267  -0.6875
    -0.6011  -0.4927   0.4266   0.6796   1.0175   1.5834

          k = 0.3125 0.4375 0.0000 ( 37234 PWs)   bands (ev):

    -7.3434  -6.6828  -6.2248  -5.5997  -5.5693  -4.4963  -4.1422  -4.0183
    -3.3623  -3.0425  -2.9224  -2.3911  -2.3002  -2.2251  -1.2802  -1.2265
    -0.8464  -0.1645   0.1866   0.6822   1.1429   1.2985

          k = 0.3125-0.5000 0.0000 ( 37220 PWs)   bands (ev):

    -6.8178  -6.8178  -6.1595  -6.1595  -5.0805  -5.0805  -3.6460  -3.6460
    -3.4815  -3.4815  -2.8560  -2.8560  -1.8309  -1.8309  -1.7953  -1.7953
    -0.3666  -0.3666   0.3085   0.3085   1.4524   1.4524

          k = 0.3750 0.3750 0.0000 ( 37286 PWs)   bands (ev):

    -7.4136  -6.7527  -5.6692  -5.1854  -5.1853  -4.5357  -4.5357  -4.2110
    -3.4567  -3.4567  -2.9890  -2.4577  -2.2931  -2.0238  -2.0238  -1.2924
    -0.2483  -0.2483  -0.2316   0.1215   1.2328   1.8952

          k = 0.3750 0.4375 0.0000 ( 37232 PWs)   bands (ev):

    -6.9576  -6.2988  -5.8422  -5.2188  -5.1896  -4.7353  -4.1759  -4.0199
    -3.7825  -3.6167  -3.0191  -2.9898  -2.6617  -1.9669  -1.9285  -1.5949
    -0.8681  -0.4980   0.1622   0.1747   1.3223   1.3234

          k = 0.3750-0.5000 0.0000 ( 37250 PWs)   bands (ev):

    -6.4335  -6.4335  -5.7771  -5.7771  -4.7026  -4.7026  -4.2219  -4.2219
    -3.5649  -3.5649  -3.2466  -3.2466  -2.5020  -2.5020  -1.4835  -1.4835
    -1.0447  -1.0447   0.4826   0.4826   0.9479   0.9479

          k = 0.4375 0.4375 0.0000 ( 37288 PWs)   bands (ev):

    -6.5032  -5.8465  -5.3919  -5.3919  -4.7714  -4.7413  -4.7413  -4.2899
    -3.6609  -3.6609  -3.6327  -3.3148  -2.5695  -2.2266  -2.2266  -1.5514
    -1.1110  -0.4481  -0.4481   0.4159   0.8826   1.6994

          k = 0.4375-0.5000 0.0000 ( 37302 PWs)   bands (ev):

    -5.9808  -5.9808  -5.3275  -5.3275  -4.8723  -4.8723  -4.3121  -4.3121
    -4.1572  -4.1572  -3.1539  -3.1539  -2.7984  -2.7984  -1.7295  -1.7295
    -1.0021  -1.0021   0.0295   0.0295   1.1909   1.1909

          k =-0.5000-0.5000 0.0000 ( 37264 PWs)   bands (ev):

    -5.4609  -5.4609  -5.4609  -5.4609  -4.8099  -4.8099  -4.8099  -4.8099
    -3.7291  -3.7291  -3.7291  -3.7291  -2.2944  -2.2944  -2.2943  -2.2943
    -0.5149  -0.5149  -0.5149  -0.5149   1.6339   1.6339

     the Fermi energy is     1.0523 ev

!    total energy              =    -149.45902011 Ry
     Harris-Foulkes estimate   =    -149.45902015 Ry
     estimated scf accuracy    <       0.00000004 Ry

     The total energy is the sum of the following terms:

     one-electron contribution =    -779.62258985 Ry
     hartree contribution      =     398.60072614 Ry
     xc contribution           =    -119.99815500 Ry
     ewald contribution        =     351.56144637 Ry
     smearing contrib. (-TS)   =      -0.00044777 Ry

     convergence has been achieved in  20 iterations

     Forces acting on atoms (Ry/au):


     negative rho (up, down):  6.039E-06 0.000E+00
     atom    1 type  1   force =     0.00000000    0.00000000   -0.00248003
     atom    2 type  1   force =     0.00000000    0.00000000   -0.00248004
     atom    3 type  1   force =     0.00000000    0.00000000    0.00195823
     atom    4 type  1   force =     0.00000000    0.00000000    0.00195823
     atom    5 type  1   force =     0.00000000    0.00000000   -0.00038973
     atom    6 type  1   force =     0.00000000    0.00000000   -0.00038966
     atom    7 type  1   force =     0.00000000    0.00000000    0.00038637
     atom    8 type  1   force =     0.00000000    0.00000000    0.00038637
     atom    9 type  1   force =     0.00000000    0.00000000   -0.00194529
     atom   10 type  1   force =     0.00000000    0.00000000   -0.00194523
     atom   11 type  1   force =     0.00000000    0.00000000    0.00247039
     atom   12 type  1   force =     0.00000000    0.00000000    0.00247039

     Total force =     0.006352     Total SCF correction =     0.000172


     entering subroutine stress ...


     negative rho (up, down):  6.039E-06 0.000E+00
          total   stress  (Ry/bohr**3)                   (kbar)     P=   -5.89
  -0.00006846   0.00000000   0.00000000        -10.07      0.00      0.00
   0.00000000  -0.00006846   0.00000000          0.00    -10.07      0.00
   0.00000000   0.00000000   0.00001682          0.00      0.00      2.47


     BFGS Geometry Optimization

     number of scf cycles    =   1
     number of bfgs steps    =   0

     energy   new            =    -149.4590201068 Ry

     new trust radius        =       0.0024800429 bohr
     new conv_thr            =       0.0000010000 Ry


ATOMIC_POSITIONS (crystal)
Al       0.000000000   0.000000000  -0.000046586
Al       0.500000000   0.500000000  -0.000046587
Al       0.500000000   0.000000000   0.071465356
Al       0.000000000   0.500000000   0.071465356
Al       0.000000000   0.000000000   0.142849822
Al       0.500000000   0.500000000   0.142849823
Al       0.500000000   0.000000000   0.214292972
Al       0.000000000   0.500000000   0.214292972
Al       0.000000000   0.000000000   0.285677744
Al       0.500000000   0.500000000   0.285677745
Al       0.500000000   0.000000000   0.357189263
Al       0.000000000   0.500000000   0.357189263



     Writing output data file Al_100_3_4.save
     NEW-OLD atomic charge density approx. for the potential

     negative rho (up, down):  5.863E-06 0.000E+00

     total cpu time spent up to now is     2033.1 secs

     per-process dynamical memory:   696.9 Mb

     Self-consistent Calculation

     iteration #  1     ecut=    80.00 Ry     beta=0.30
     Davidson diagonalization with overlap
     ethr =  1.00E-06,  avg # of iterations =  2.0

     Threshold (ethr) on eigenvalues was too large:
     Diagonalizing with lowered threshold

     Davidson diagonalization with overlap
     ethr =  3.00E-08,  avg # of iterations =  2.9

     negative rho (up, down):  5.296E-06 0.000E+00

     total cpu time spent up to now is     2237.6 secs

     total energy              =    -149.45905832 Ry
     Harris-Foulkes estimate   =    -149.45905896 Ry
     estimated scf accuracy    <       0.00001415 Ry

     iteration #  2     ecut=    80.00 Ry     beta=0.30
     Davidson diagonalization with overlap
     ethr =  3.93E-08,  avg # of iterations =  1.0

     negative rho (up, down):  3.788E-06 0.000E+00

     total cpu time spent up to now is     2323.9 secs

     total energy              =    -149.45905693 Ry
     Harris-Foulkes estimate   =    -149.45905841 Ry
     estimated scf accuracy    <       0.00000839 Ry

     iteration #  3     ecut=    80.00 Ry     beta=0.30
     Davidson diagonalization with overlap
     ethr =  2.33E-08,  avg # of iterations =  2.5

     negative rho (up, down):  6.016E-06 0.000E+00

     total cpu time spent up to now is     2412.1 secs

     End of self-consistent calculation

          k = 0.0000 0.0000 0.0000 ( 37267 PWs)   bands (ev):

    -9.9663  -9.2933  -8.1910  -6.7137  -4.8886  -2.6979  -1.6982  -1.6982
    -1.1659  -1.0790  -1.0790  -0.3301  -0.3301  -0.0589  -0.0589   0.3063
     0.3063   1.3204   1.3204   1.4537   1.4538   1.6775

          k = 0.0000 0.0625 0.0000 ( 37205 PWs)   bands (ev):

    -9.9306  -9.2577  -8.1557  -6.6787  -4.8538  -2.6634  -2.2669  -1.6654
    -1.6361  -1.1327  -1.0462  -0.6054  -0.2947  -0.0262   0.2760   0.3956
     0.7753   0.9120   1.3531   1.5464   1.7102   2.0097

          k = 0.0000 0.1250 0.0000 ( 37193 PWs)   bands (ev):

    -9.8234  -9.1509  -8.0496  -6.5735  -4.7497  -3.1688  -2.5601  -2.5284
    -1.5670  -1.4804  -1.0334  -0.9478  -0.2351  -0.0187   0.0722   0.4683
     1.3861   1.4514   1.5145   1.7020   1.8077   2.1004

          k = 0.0000 0.1875 0.0000 ( 37198 PWs)   bands (ev):

    -9.6449  -8.9731  -7.8730  -6.3984  -4.5763  -4.0660  -3.4194  -2.3880
    -2.3604  -1.4029  -0.9463  -0.8678  -0.7837  -0.0050   0.2362   0.5556
     0.9391   1.6151   1.7228   1.9680   2.5679   2.9457

          k = 0.0000 0.2500 0.0000 ( 37192 PWs)   bands (ev):

    -9.3954  -8.7246  -7.6261  -6.1536  -4.9158  -4.3340  -4.2644  -3.1974
    -2.1478  -1.7687  -1.1732  -0.6362  -0.5540  -0.0233   0.2214   0.4658
     0.9438   1.8443   1.9101   2.1854   2.2433   3.0315

          k = 0.0000 0.3125 0.0000 ( 37174 PWs)   bands (ev):

    -9.0752  -8.4058  -7.3093  -5.8395  -5.7072  -5.0520  -4.0232  -3.9786
    -2.5403  -1.8401  -0.8777  -0.7691  -0.3388  -0.2586   0.4937   0.7610
     1.2328   1.4396   2.1390   2.2758   2.3111   2.4399

          k = 0.0000 0.3750 0.0000 ( 37172 PWs)   bands (ev):

    -8.6849  -8.0170  -6.9230  -6.4359  -5.7773  -5.4566  -4.6986  -3.6444
    -3.2528  -1.4684  -1.4660  -0.5166   0.0240   0.1024   0.5481   1.0777
     1.1219   1.5858   1.5948   2.1153   2.2040   2.4992

          k = 0.0000 0.4375 0.0000 ( 37222 PWs)   bands (ev):

    -8.2249  -7.5589  -7.0994  -6.4679  -6.4380  -5.3546  -5.0055  -3.9024
    -3.1983  -2.1087  -1.0271  -0.0897   0.0249   0.4514   0.5292   0.9615
     1.4024   1.4911   1.5483   1.5800   2.0414   2.3493

          k = 0.0000-0.5000 0.0000 ( 37186 PWs)   bands (ev):

    -7.6961  -7.6961  -7.0322  -7.0322  -5.9448  -5.9448  -4.4871  -4.4871
    -2.6860  -2.6860  -0.5269  -0.5269   0.4030   0.4030   0.9422   0.9422
     1.0218   1.0218   1.8648   1.8648   2.0404   2.0404

          k = 0.0625 0.0625 0.0000 ( 37181 PWs)   bands (ev):

    -9.8948  -9.2221  -8.1203  -6.6436  -4.8191  -2.6290  -2.2337  -2.2337
    -1.6033  -1.6033  -1.0996  -0.5648  -0.5648   0.3286   0.3286   0.8334
     0.8334   0.9782   0.9782   1.7426   2.0839   2.0840

          k = 0.0625 0.1250 0.0000 ( 37200 PWs)   bands (ev):

    -9.7877  -9.1153  -8.0143  -6.5385  -4.7150  -3.1349  -2.5256  -2.4955
    -2.1328  -1.5374  -1.4067  -1.0003  -0.4683  -0.0364   0.4537   0.9215
     1.0632   1.4338   1.7564   1.8385   1.9389   2.2813

          k = 0.0625 0.1875 0.0000 ( 37177 PWs)   bands (ev):

    -9.6092  -8.9376  -7.8377  -6.3634  -4.5417  -4.0318  -3.3855  -2.3537
    -2.3283  -1.9672  -1.3301  -0.9089  -0.8348  -0.2886   0.6109   0.7972
     1.1119   1.3277   1.9929   2.2966   2.7320   3.1083

          k = 0.0625 0.2500 0.0000 ( 37203 PWs)   bands (ev):

    -9.3598  -8.6892  -7.5909  -6.1187  -4.8813  -4.2995  -4.2302  -3.1638
    -2.1137  -1.7779  -1.6877  -1.1007  -0.6033  -0.0599   0.0294   0.8319
     1.3335   1.5293   2.1575   2.1619   2.5954   2.6000

          k = 0.0625 0.3125 0.0000 ( 37175 PWs)   bands (ev):

    -9.0397  -8.3704  -7.2741  -5.8047  -5.6725  -5.0175  -3.9887  -3.9444
    -2.5073  -1.8064  -1.4307  -0.8440  -0.6831  -0.3061   0.2363   1.0486
     1.5424   1.6243   1.7264   1.8242   2.3734   2.5530

          k = 0.0625 0.3750 0.0000 ( 37193 PWs)   bands (ev):

    -8.6494  -7.9817  -6.8880  -6.4010  -5.7426  -5.4219  -4.6641  -3.6101
    -3.2188  -1.4371  -1.4330  -1.0674  -0.4257   0.0562   0.5689   0.7208
     1.0563   1.5855   1.6863   1.9316   2.1549   2.2557

          k = 0.0625 0.4375 0.0000 ( 37206 PWs)   bands (ev):

    -8.1896  -7.5237  -7.0643  -6.4330  -6.4031  -5.3199  -4.9709  -3.8681
    -3.1642  -2.0754  -0.9963  -0.6444   0.0028   0.0888   0.4369   0.4823
     1.0385   1.0621   1.5196   1.9795   2.0881   2.4412

          k = 0.0625-0.5000 0.0000 ( 37210 PWs)   bands (ev):

    -7.6609  -7.6609  -6.9972  -6.9972  -5.9100  -5.9100  -4.4526  -4.4526
    -2.6521  -2.6521  -0.5144  -0.5144  -0.1035  -0.1035   0.4976   0.4976
     0.9752   0.9752   1.5308   1.5308   2.4372   2.4372

          k = 0.1250 0.1250 0.0000 ( 37179 PWs)   bands (ev):

    -9.6806  -9.0087  -7.9083  -6.4334  -4.6110  -3.0338  -3.0338  -2.4225
    -2.3953  -2.3953  -1.3373  -1.3372  -0.9010   0.0697   0.0697   1.5196
     1.5196   1.7752   1.7753   1.9265   2.2092   2.2092

          k = 0.1250 0.1875 0.0000 ( 37156 PWs)   bands (ev):

    -9.5023  -8.8311  -7.7319  -6.2585  -4.4379  -3.9294  -3.2847  -2.8635
    -2.2965  -2.2510  -2.1472  -1.1791  -0.7884  -0.7357   0.2312   0.9579
     1.6762   1.9611   2.0239   2.3517   2.5747   2.7169

          k = 0.1250 0.2500 0.0000 ( 37165 PWs)   bands (ev):

    -9.2530  -8.5828  -7.4852  -6.0139  -4.7780  -4.1959  -4.1276  -3.0640
    -2.6290  -2.0117  -1.9811  -1.6317  -0.9269  -0.5047   0.1183   0.4955
     1.6024   1.8321   2.1211   2.2686   2.4110   2.4972

          k = 0.1250 0.3125 0.0000 ( 37207 PWs)   bands (ev):

    -8.9332  -8.2643  -7.1687  -5.7002  -5.5685  -4.9140  -3.8854  -3.8422
    -2.4306  -2.2956  -1.7056  -1.6836  -0.6302  -0.6226  -0.2083   0.7763
     0.8822   1.4588   1.5198   2.2763   2.5076   2.5709

          k = 0.1250 0.3750 0.0000 ( 37189 PWs)   bands (ev):

    -8.5432  -7.8758  -6.7828  -6.2964  -5.6385  -5.3177  -4.5609  -3.5072
    -3.1176  -1.9507  -1.4038  -1.3354  -1.2337  -0.2663   0.1519   0.1997
     0.8184   0.8300   1.1301   1.8615   2.2694   2.6096

          k = 0.1250 0.4375 0.0000 ( 37163 PWs)   bands (ev):

    -8.0837  -7.4182  -6.9592  -6.3282  -6.2985  -5.2161  -4.8671  -3.7655
    -3.0619  -1.9767  -1.5181  -0.9184  -0.8655  -0.4069   0.0998   0.1951
     0.2705   0.5821   1.2386   1.4552   1.7623   2.6459

          k = 0.1250-0.5000 0.0000 ( 37170 PWs)   bands (ev):

    -7.5554  -7.5554  -6.8921  -6.8921  -5.8056  -5.8056  -4.3493  -4.3493
    -2.5508  -2.5508  -1.0309  -1.0309  -0.3675  -0.3675  -0.3604  -0.3604
     0.6793   0.6793   1.0603   1.0603   2.0983   2.0983

          k = 0.1875 0.1875 0.0000 ( 37147 PWs)   bands (ev):

    -9.3242  -8.6537  -7.5556  -6.0838  -4.2650  -3.7591  -3.7591  -3.1156
    -3.1156  -2.0802  -2.0474  -2.0473  -0.6303  -0.6302  -0.5709   1.1200
     1.1200   1.5506   2.2216   2.3554   2.8256   2.8256

          k = 0.1875 0.2500 0.0000 ( 37175 PWs)   bands (ev):

    -9.0752  -8.4058  -7.3093  -5.8396  -4.6060  -4.0234  -3.9576  -3.5190
    -2.9592  -2.8012  -1.8423  -1.8211  -1.4472  -0.4048  -0.3407   0.3194
     0.7740   1.3336   1.4143   2.3968   2.4417   2.6195

          k = 0.1875 0.3125 0.0000 ( 37186 PWs)   bands (ev):

    -8.7557  -8.0876  -6.9932  -5.5262  -5.3954  -4.7419  -3.7135  -3.6734
    -3.2149  -2.5618  -2.2331  -1.5397  -1.5022  -0.4765  -0.0674  -0.0467
     0.0283   0.6609   1.4669   1.6948   1.8978   2.8520

          k = 0.1875 0.3750 0.0000 ( 37171 PWs)   bands (ev):

    -8.3662  -7.6996  -6.6078  -6.1223  -5.4652  -5.1443  -4.3894  -3.3360
    -2.9687  -2.8145  -2.1948  -1.1889  -1.1572  -1.1361  -0.6452  -0.0416
     0.2789   0.3186   0.9671   1.0069   2.0819   2.4089

          k = 0.1875 0.4375 0.0000 ( 37190 PWs)   bands (ev):

    -7.9073  -7.2426  -6.7842  -6.1538  -6.1243  -5.0433  -4.6944  -3.5953
    -2.8918  -2.3965  -1.8622  -1.6889  -1.3402  -0.7039  -0.6933  -0.6715
     0.3658   0.3810   0.6984   0.7301   1.8075   1.8190

          k = 0.1875-0.5000 0.0000 ( 37202 PWs)   bands (ev):

    -7.3796  -7.3796  -6.7171  -6.7171  -5.6319  -5.6319  -4.1775  -4.1775
    -2.3835  -2.3835  -1.8946  -1.8946  -1.2384  -1.2384  -0.2889  -0.2889
    -0.1047  -0.1047   1.0699   1.0699   1.3952   1.3952

          k = 0.2500 0.2500 0.0000 ( 37217 PWs)   bands (ev):

    -8.8267  -8.1582  -7.0634  -5.5958  -4.3660  -4.3660  -3.7823  -3.7190
    -3.7190  -2.6446  -2.6445  -1.6079  -1.2220  -1.2220  -0.1130  -0.0314
     0.5402   0.5402   0.6019   1.6366   2.6574   2.6574

          k = 0.2500 0.3125 0.0000 ( 37224 PWs)   bands (ev):

    -8.5077  -7.8406  -6.7478  -5.2831  -5.1534  -4.5022  -4.0560  -3.4967
    -3.4733  -3.3374  -2.3479  -1.9842  -1.3245  -0.9295  -0.7696  -0.2054
    -0.1650   0.1866   0.8175   0.8857   1.9663   2.3014

          k = 0.2500 0.3750 0.0000 ( 37195 PWs)   bands (ev):

    -8.1189  -7.4533  -6.3631  -5.8789  -5.2232  -4.9019  -4.1510  -3.6820
    -3.0970  -3.0258  -2.7051  -1.9636  -1.5316  -0.9455  -0.8956  -0.8610
    -0.5199   0.1942   0.5315   1.0106   1.4614   1.6245

          k = 0.2500 0.4375 0.0000 ( 37231 PWs)   bands (ev):

    -7.6607  -6.9970  -6.5396  -5.9100  -5.8808  -4.8019  -4.4530  -3.3755
    -3.2135  -2.6556  -2.5891  -2.1535  -1.5621  -1.5279  -1.4961  -0.5544
    -0.3619  -0.1071   0.5725   0.8088   1.1430   1.7056

          k = 0.2500-0.5000 0.0000 ( 37208 PWs)   bands (ev):

    -7.1340  -7.1340  -6.4725  -6.4725  -5.3891  -5.3891  -3.9379  -3.9379
    -2.7243  -2.7243  -2.1931  -2.1931  -2.0227  -2.0227  -1.0272  -1.0272
     0.0339   0.0339   0.3792   0.3792   1.4928   1.4928

          k = 0.3125 0.3125 0.0000 ( 37223 PWs)   bands (ev):

    -8.1895  -7.5236  -6.4330  -4.9711  -4.8433  -4.8432  -4.1937  -4.1937
    -3.1655  -3.1153  -3.1153  -1.6892  -1.6892  -1.5961  -0.9634  -0.9250
     0.0806   0.0807   0.1311   0.4653   1.5626   2.2162

          k = 0.3125 0.3750 0.0000 ( 37249 PWs)   bands (ev):

    -7.8015  -7.1372  -6.0492  -5.5666  -4.9134  -4.5910  -4.4632  -3.9026
    -3.7447  -2.7920  -2.7479  -2.3909  -2.2845  -1.6266  -1.3287  -0.6883
    -0.6035  -0.4919   0.4242   0.6774   1.0154   1.5808

          k = 0.3125 0.4375 0.0000 ( 37234 PWs)   bands (ev):

    -7.3443  -6.6820  -6.2258  -5.5972  -5.5685  -4.4938  -4.1441  -4.0193
    -3.3614  -3.0442  -2.9233  -2.3925  -2.2977  -2.2255  -1.2829  -1.2240
    -0.8480  -0.1669   0.1849   0.6799   1.1402   1.2960

          k = 0.3125-0.5000 0.0000 ( 37220 PWs)   bands (ev):

    -6.8188  -6.8188  -6.1587  -6.1587  -5.0780  -5.0780  -3.6478  -3.6478
    -3.4824  -3.4824  -2.8551  -2.8551  -1.8335  -1.8335  -1.7927  -1.7927
    -0.3682  -0.3682   0.3060   0.3060   1.4498   1.4498

          k = 0.3750 0.3750 0.0000 ( 37286 PWs)   bands (ev):

    -7.4145  -6.7519  -5.6666  -5.1863  -5.1863  -4.5350  -4.5350  -4.2129
    -3.4541  -3.4541  -2.9900  -2.4591  -2.2934  -2.0257  -2.0256  -1.2899
    -0.2507  -0.2507  -0.2341   0.1197   1.2303   1.8929

          k = 0.3750 0.4375 0.0000 ( 37232 PWs)   bands (ev):

    -6.9586  -6.2980  -5.8432  -5.2162  -5.1887  -4.7363  -4.1743  -4.0182
    -3.7843  -3.6176  -3.0165  -2.9889  -2.6635  -1.9696  -1.9259  -1.5969
    -0.8705  -0.4997   0.1598   0.1721   1.3198   1.3208

          k = 0.3750-0.5000 0.0000 ( 37250 PWs)   bands (ev):

    -6.4345  -6.4345  -5.7763  -5.7763  -4.7001  -4.7001  -4.2229  -4.2229
    -3.5641  -3.5641  -3.2484  -3.2484  -2.4995  -2.4995  -1.4862  -1.4862
    -1.0463  -1.0463   0.4802   0.4802   0.9452   0.9452

          k = 0.4375 0.4375 0.0000 ( 37288 PWs)   bands (ev):

    -6.5041  -5.8457  -5.3929  -5.3929  -4.7689  -4.7405  -4.7405  -4.2909
    -3.6583  -3.6583  -3.6318  -3.3165  -2.5669  -2.2285  -2.2285  -1.5541
    -1.1126  -0.4506  -0.4505   0.4135   0.8798   1.6971

          k = 0.4375-0.5000 0.0000 ( 37302 PWs)   bands (ev):

    -5.9818  -5.9818  -5.3267  -5.3267  -4.8733  -4.8733  -4.3104  -4.3104
    -4.1554  -4.1554  -3.1513  -3.1513  -2.8002  -2.8002  -1.7315  -1.7315
    -1.0045  -1.0045   0.0271   0.0271   1.1884   1.1884

          k =-0.5000-0.5000 0.0000 ( 37264 PWs)   bands (ev):

    -5.4618  -5.4618  -5.4618  -5.4618  -4.8091  -4.8091  -4.8091  -4.8091
    -3.7265  -3.7265  -3.7265  -3.7265  -2.2962  -2.2962  -2.2962  -2.2962
    -0.5173  -0.5173  -0.5173  -0.5173   1.6316   1.6316

     the Fermi energy is     1.0512 ev

!    total energy              =    -149.45905718 Ry
     Harris-Foulkes estimate   =    -149.45905783 Ry
     estimated scf accuracy    <       0.00000068 Ry

     The total energy is the sum of the following terms:

     one-electron contribution =    -779.49531435 Ry
     hartree contribution      =     398.53236844 Ry
     xc contribution           =    -119.99687643 Ry
     ewald contribution        =     351.50121614 Ry
     smearing contrib. (-TS)   =      -0.00045099 Ry

     convergence has been achieved in   3 iterations

     Forces acting on atoms (Ry/au):


     negative rho (up, down):  6.016E-06 0.000E+00
     atom    1 type  1   force =     0.00000000    0.00000000   -0.00222510
     atom    2 type  1   force =     0.00000000    0.00000000   -0.00222511
     atom    3 type  1   force =     0.00000000    0.00000000    0.00157049
     atom    4 type  1   force =     0.00000000    0.00000000    0.00157049
     atom    5 type  1   force =     0.00000000    0.00000000   -0.00022553
     atom    6 type  1   force =     0.00000000    0.00000000   -0.00022547
     atom    7 type  1   force =     0.00000000    0.00000000    0.00022571
     atom    8 type  1   force =     0.00000000    0.00000000    0.00022571
     atom    9 type  1   force =     0.00000000    0.00000000   -0.00155224
     atom   10 type  1   force =     0.00000000    0.00000000   -0.00155225
     atom   11 type  1   force =     0.00000000    0.00000000    0.00220665
     atom   12 type  1   force =     0.00000000    0.00000000    0.00220665

     Total force =     0.005440     Total SCF correction =     0.001401
     SCF correction compared to forces is large: reduce conv_thr to get better values


     entering subroutine stress ...


     negative rho (up, down):  6.016E-06 0.000E+00
          total   stress  (Ry/bohr**3)                   (kbar)     P=   -5.95
  -0.00006876   0.00000000   0.00000000        -10.12      0.00      0.00
   0.00000000  -0.00006876   0.00000000          0.00    -10.12      0.00
   0.00000000   0.00000000   0.00001617          0.00      0.00      2.38


     number of scf cycles    =   2
     number of bfgs steps    =   1

     energy   old            =    -149.4590201068 Ry
     energy   new            =    -149.4590571808 Ry

     CASE: energy  _new < energy  _old


     WARNING: bfgs curvature condition failed, Theta= 0.936
     new trust radius        =       0.0027280472 bohr
     new conv_thr            =       0.0000000100 Ry


ATOMIC_POSITIONS (crystal)
Al       0.000000000   0.000000000  -0.000097832
Al       0.500000000   0.500000000  -0.000097832
Al       0.500000000   0.000000000   0.071501912
Al       0.000000000   0.500000000   0.071501912
Al       0.000000000   0.000000000   0.142844370
Al       0.500000000   0.500000000   0.142844373
Al       0.500000000   0.000000000   0.214298421
Al       0.000000000   0.500000000   0.214298421
Al       0.000000000   0.000000000   0.285641595
Al       0.500000000   0.500000000   0.285641596
Al       0.500000000   0.000000000   0.357240103
Al       0.000000000   0.500000000   0.357240103



     Writing output data file Al_100_3_4.save
     NEW-OLD atomic charge density approx. for the potential

     negative rho (up, down):  5.824E-06 0.000E+00

     total cpu time spent up to now is     2458.9 secs

     per-process dynamical memory:   696.9 Mb

     Self-consistent Calculation

     iteration #  1     ecut=    80.00 Ry     beta=0.30
     Davidson diagonalization with overlap
     ethr =  1.00E-06,  avg # of iterations =  2.4

     negative rho (up, down):  3.376E-06 0.000E+00

     total cpu time spent up to now is     2572.9 secs

     total energy              =    -149.45909829 Ry
     Harris-Foulkes estimate   =    -149.45910549 Ry
     estimated scf accuracy    <       0.00030452 Ry

     iteration #  2     ecut=    80.00 Ry     beta=0.30
     Davidson diagonalization with overlap
     ethr =  8.46E-07,  avg # of iterations =  1.0

     negative rho (up, down):  2.924E-07 0.000E+00

     total cpu time spent up to now is     2657.2 secs

     total energy              =    -149.45907629 Ry
     Harris-Foulkes estimate   =    -149.45910004 Ry
     estimated scf accuracy    <       0.00019981 Ry

     iteration #  3     ecut=    80.00 Ry     beta=0.30
     Davidson diagonalization with overlap
     ethr =  5.55E-07,  avg # of iterations =  2.2

     negative rho (up, down):  6.750E-07 0.000E+00

     total cpu time spent up to now is     2749.4 secs

     total energy              =    -149.45908998 Ry
     Harris-Foulkes estimate   =    -149.45909336 Ry
     estimated scf accuracy    <       0.00003884 Ry

     iteration #  4     ecut=    80.00 Ry     beta=0.30
     Davidson diagonalization with overlap
     ethr =  1.08E-07,  avg # of iterations =  1.3

     negative rho (up, down):  7.974E-07 0.000E+00

     total cpu time spent up to now is     2832.8 secs

     total energy              =    -149.45909161 Ry
     Harris-Foulkes estimate   =    -149.45909168 Ry
     estimated scf accuracy    <       0.00000156 Ry

     iteration #  5     ecut=    80.00 Ry     beta=0.30
     Davidson diagonalization with overlap
     ethr =  4.32E-09,  avg # of iterations =  3.6

     negative rho (up, down):  1.256E-06 0.000E+00

     total cpu time spent up to now is     2936.3 secs

     total energy              =    -149.45909183 Ry
     Harris-Foulkes estimate   =    -149.45909185 Ry
     estimated scf accuracy    <       0.00000019 Ry

     iteration #  6     ecut=    80.00 Ry     beta=0.30
     Davidson diagonalization with overlap
     ethr =  5.29E-10,  avg # of iterations =  2.1

     negative rho (up, down):  1.610E-06 0.000E+00

     total cpu time spent up to now is     3030.0 secs

     total energy              =    -149.45909188 Ry
     Harris-Foulkes estimate   =    -149.45909185 Ry
     estimated scf accuracy    <       0.00000024 Ry

     iteration #  7     ecut=    80.00 Ry     beta=0.30
     Davidson diagonalization with overlap
     ethr =  5.29E-10,  avg # of iterations =  2.7

     negative rho (up, down):  2.182E-06 0.000E+00

     total cpu time spent up to now is     3127.7 secs

     total energy              =    -149.45909180 Ry
     Harris-Foulkes estimate   =    -149.45909193 Ry
     estimated scf accuracy    <       0.00000208 Ry

     iteration #  8     ecut=    80.00 Ry     beta=0.30
     Davidson diagonalization with overlap
     ethr =  5.29E-10,  avg # of iterations =  2.4

     negative rho (up, down):  2.828E-06 0.000E+00

     total cpu time spent up to now is     3224.0 secs

     total energy              =    -149.45909182 Ry
     Harris-Foulkes estimate   =    -149.45909183 Ry
     estimated scf accuracy    <       0.00000024 Ry

     iteration #  9     ecut=    80.00 Ry     beta=0.30
     Davidson diagonalization with overlap
     ethr =  5.29E-10,  avg # of iterations =  1.0

     negative rho (up, down):  4.769E-06 0.000E+00

     total cpu time spent up to now is     3309.2 secs

     total energy              =    -149.45909182 Ry
     Harris-Foulkes estimate   =    -149.45909182 Ry
     estimated scf accuracy    <       0.00000002 Ry

     iteration # 10     ecut=    80.00 Ry     beta=0.30
     Davidson diagonalization with overlap
     ethr =  5.71E-11,  avg # of iterations =  3.2

     negative rho (up, down):  5.995E-06 0.000E+00

     total cpu time spent up to now is     3409.7 secs

     End of self-consistent calculation

          k = 0.0000 0.0000 0.0000 ( 37267 PWs)   bands (ev):

    -9.9655  -9.2897  -8.1860  -6.7132  -4.8891  -2.6984  -1.6975  -1.6975
    -1.1665  -1.0753  -1.0753  -0.3293  -0.3293  -0.0533  -0.0533   0.3093
     0.3093   1.3208   1.3208   1.4588   1.4589   1.6766

          k = 0.0000 0.0625 0.0000 ( 37205 PWs)   bands (ev):

    -9.9298  -9.2541  -8.1507  -6.6782  -4.8543  -2.6639  -2.2662  -1.6646
    -1.6325  -1.1334  -1.0425  -0.6001  -0.2940  -0.0205   0.2779   0.3978
     0.7769   0.9143   1.3536   1.5513   1.7093   2.0150

          k = 0.0000 0.1250 0.0000 ( 37193 PWs)   bands (ev):

    -9.8226  -9.1474  -8.0446  -6.5730  -4.7502  -3.1680  -2.5605  -2.5248
    -1.5662  -1.4752  -1.0340  -0.9441  -0.2348  -0.0175   0.0779   0.4718
     1.3866   1.4518   1.5184   1.7013   1.8068   2.1045

          k = 0.0000 0.1875 0.0000 ( 37198 PWs)   bands (ev):

    -9.6441  -8.9696  -7.8680  -6.3979  -4.5769  -4.0652  -3.4158  -2.3885
    -2.3552  -1.4021  -0.9458  -0.8684  -0.7800  -0.0041   0.2419   0.5582
     0.9393   1.6156   1.7271   1.9672   2.5683   2.9455

          k = 0.0000 0.2500 0.0000 ( 37192 PWs)   bands (ev):

    -9.3946  -8.7211  -7.6211  -6.1531  -4.9150  -4.3345  -4.2608  -3.1923
    -2.1483  -1.7681  -1.1724  -0.6368  -0.5503  -0.0236   0.2222   0.4715
     0.9469   1.8448   1.9131   2.1846   2.2446   3.0322

          k = 0.0000 0.3125 0.0000 ( 37174 PWs)   bands (ev):

    -9.0745  -8.4022  -7.3042  -5.8390  -5.7064  -5.0484  -4.0237  -3.9735
    -2.5398  -1.8406  -0.8770  -0.7695  -0.3394  -0.2549   0.4945   0.7667
     1.2361   1.4392   2.1395   2.2766   2.3158   2.4392

          k = 0.0000 0.3750 0.0000 ( 37172 PWs)   bands (ev):

    -8.6841  -8.0134  -6.9180  -6.4351  -5.7738  -5.4561  -4.6935  -3.6449
    -3.2522  -1.4689  -1.4664  -0.5158   0.0234   0.1062   0.5480   1.0781
     1.1276   1.5866   1.5981   2.1151   2.2078   2.4996

          k = 0.0000 0.4375 0.0000 ( 37222 PWs)   bands (ev):

    -8.2241  -7.5553  -7.0986  -6.4629  -6.4344  -5.3495  -5.0050  -3.9018
    -3.1988  -2.1091  -1.0276  -0.0889   0.0245   0.4509   0.5330   0.9623
     1.4031   1.4906   1.5540   1.5838   2.0449   2.3499

          k = 0.0000-0.5000 0.0000 ( 37186 PWs)   bands (ev):

    -7.6953  -7.6953  -7.0287  -7.0287  -5.9397  -5.9397  -4.4865  -4.4865
    -2.6865  -2.6865  -0.5273  -0.5273   0.4038   0.4038   0.9417   0.9417
     1.0255   1.0255   1.8655   1.8655   2.0461   2.0461

          k = 0.0625 0.0625 0.0000 ( 37181 PWs)   bands (ev):

    -9.8941  -9.2185  -8.1153  -6.6431  -4.8196  -2.6294  -2.2330  -2.2330
    -1.5997  -1.5997  -1.1002  -0.5594  -0.5594   0.3293   0.3293   0.8345
     0.8345   0.9811   0.9811   1.7416   2.0890   2.0890

          k = 0.0625 0.1250 0.0000 ( 37200 PWs)   bands (ev):

    -9.7869  -9.1118  -8.0092  -6.5379  -4.7155  -3.1342  -2.5261  -2.4919
    -2.1320  -1.5335  -1.4016  -1.0009  -0.4629  -0.0359   0.4546   0.9221
     1.0666   1.4344   1.7559   1.8376   1.9423   2.2862

          k = 0.0625 0.1875 0.0000 ( 37177 PWs)   bands (ev):

    -9.6085  -8.9341  -7.8327  -6.3629  -4.5422  -4.0311  -3.3819  -2.3542
    -2.3232  -1.9665  -1.3264  -0.9082  -0.8354  -0.2833   0.6117   0.7973
     1.1125   1.3307   1.9920   2.3010   2.7316   3.1079

          k = 0.0625 0.2500 0.0000 ( 37203 PWs)   bands (ev):

    -9.3590  -8.6856  -7.5858  -6.1181  -4.8805  -4.3000  -4.2266  -3.1587
    -2.1142  -1.7775  -1.6867  -1.0970  -0.6039  -0.0545   0.0290   0.8327
     1.3340   1.5327   2.1570   2.1619   2.6000   2.6004

          k = 0.0625 0.3125 0.0000 ( 37175 PWs)   bands (ev):

    -9.0389  -8.3668  -7.2691  -5.8041  -5.6717  -5.0139  -3.9892  -3.9393
    -2.5067  -1.8068  -1.4299  -0.8414  -0.6825  -0.3067   0.2417   1.0492
     1.5424   1.6248   1.7271   1.8277   2.3771   2.5523

          k = 0.0625 0.3750 0.0000 ( 37193 PWs)   bands (ev):

    -8.6487  -7.9781  -6.8829  -6.4002  -5.7391  -5.4213  -4.6591  -3.6106
    -3.2183  -1.4376  -1.4334  -1.0667  -0.4221   0.0557   0.5727   0.7221
     1.0571   1.5862   1.6901   1.9319   2.1571   2.2570

          k = 0.0625 0.4375 0.0000 ( 37206 PWs)   bands (ev):

    -8.1888  -7.5202  -7.0635  -6.4280  -6.3995  -5.3149  -4.9704  -3.8675
    -3.1647  -2.0758  -0.9967  -0.6437   0.0065   0.0884   0.4376   0.4817
     1.0440   1.0658   1.5192   1.9802   2.0936   2.4418

          k = 0.0625-0.5000 0.0000 ( 37210 PWs)   bands (ev):

    -7.6601  -7.6601  -6.9936  -6.9936  -5.9049  -5.9049  -4.4521  -4.4521
    -2.6526  -2.6526  -0.5147  -0.5147  -0.1029  -0.1029   0.5013   0.5013
     0.9747   0.9747   1.5363   1.5363   2.4379   2.4379

          k = 0.1250 0.1250 0.0000 ( 37179 PWs)   bands (ev):

    -9.6798  -9.0051  -7.9033  -6.4329  -4.6115  -3.0330  -3.0330  -2.4230
    -2.3917  -2.3917  -1.3320  -1.3319  -0.9016   0.0703   0.0703   1.5205
     1.5205   1.7752   1.7752   1.9257   2.2120   2.2121

          k = 0.1250 0.1875 0.0000 ( 37156 PWs)   bands (ev):

    -9.5015  -8.8276  -7.7268  -6.2579  -4.4384  -3.9286  -3.2811  -2.8628
    -2.2924  -2.2515  -2.1425  -1.1738  -0.7878  -0.7363   0.2316   0.9576
     1.6770   1.9606   2.0233   2.3551   2.5751   2.7175

          k = 0.1250 0.2500 0.0000 ( 37165 PWs)   bands (ev):

    -9.2523  -8.5793  -7.4802  -6.0134  -4.7772  -4.1964  -4.1240  -3.0589
    -2.6283  -2.0121  -1.9774  -1.6310  -0.9218  -0.5053   0.1177   0.4962
     1.6031   1.8327   2.1207   2.2723   2.4102   2.4969

          k = 0.1250 0.3125 0.0000 ( 37207 PWs)   bands (ev):

    -8.9324  -8.2607  -7.1637  -5.6996  -5.5677  -4.9105  -3.8859  -3.8371
    -2.4302  -2.2946  -1.7060  -1.6799  -0.6249  -0.6231  -0.2089   0.7770
     0.8830   1.4586   1.5235   2.2769   2.5115   2.5703

          k = 0.1250 0.3750 0.0000 ( 37189 PWs)   bands (ev):

    -8.5424  -7.8723  -6.7778  -6.2956  -5.6350  -5.3171  -4.5559  -3.5077
    -3.1171  -1.9499  -1.4022  -1.3358  -1.2320  -0.2611   0.1514   0.2005
     0.8182   0.8337   1.1307   1.8669   2.2690   2.6103

          k = 0.1250 0.4375 0.0000 ( 37163 PWs)   bands (ev):

    -8.0829  -7.4147  -6.9585  -6.3232  -6.2949  -5.2110  -4.8666  -3.7649
    -3.0624  -1.9772  -1.5174  -0.9188  -0.8619  -0.4062   0.1022   0.1987
     0.2730   0.5816   1.2440   1.4553   1.7623   2.6465

          k = 0.1250-0.5000 0.0000 ( 37170 PWs)   bands (ev):

    -7.5546  -7.5546  -6.8886  -6.8886  -5.8006  -5.8006  -4.3488  -4.3488
    -2.5513  -2.5513  -1.0301  -1.0301  -0.3639  -0.3639  -0.3608  -0.3608
     0.6847   0.6847   1.0599   1.0599   2.0989   2.0989

          k = 0.1875 0.1875 0.0000 ( 37147 PWs)   bands (ev):

    -9.3234  -8.6502  -7.5506  -6.0832  -4.2655  -3.7583  -3.7583  -3.1121
    -3.1121  -2.0807  -2.0421  -2.0421  -0.6297  -0.6297  -0.5715   1.1195
     1.1196   1.5512   2.2253   2.3547   2.8261   2.8261

          k = 0.1875 0.2500 0.0000 ( 37175 PWs)   bands (ev):

    -9.0745  -8.4022  -7.3043  -5.8390  -4.6053  -4.0239  -3.9540  -3.5183
    -2.9550  -2.7966  -1.8428  -1.8159  -1.4466  -0.4044  -0.3413   0.3191
     0.7748   1.3332   1.4180   2.4006   2.4414   2.6203

          k = 0.1875 0.3125 0.0000 ( 37186 PWs)   bands (ev):

    -8.7550  -8.0840  -6.9882  -5.5257  -5.3946  -4.7383  -3.7140  -3.6684
    -3.2142  -2.5581  -2.2324  -1.5401  -1.4971  -0.4771  -0.0666  -0.0473
     0.0290   0.6645   1.4667   1.7002   1.8972   2.8512

          k = 0.1875 0.3750 0.0000 ( 37171 PWs)   bands (ev):

    -8.3655  -7.6961  -6.6028  -6.1215  -5.4617  -5.1437  -4.3843  -3.3364
    -2.9683  -2.8136  -2.1912  -1.1893  -1.1577  -1.1310  -0.6446  -0.0381
     0.2796   0.3182   0.9669   1.0122   2.0813   2.4087

          k = 0.1875 0.4375 0.0000 ( 37190 PWs)   bands (ev):

    -7.9065  -7.2390  -6.7835  -6.1487  -6.1207  -5.0382  -4.6938  -3.5947
    -2.8923  -2.3957  -1.8610  -1.6869  -1.3395  -0.6988  -0.6937  -0.6679
     0.3656   0.3863   0.6990   0.7296   1.8081   1.8187

          k = 0.1875-0.5000 0.0000 ( 37202 PWs)   bands (ev):

    -7.3789  -7.3789  -6.7136  -6.7136  -5.6269  -5.6269  -4.1769  -4.1769
    -2.3840  -2.3840  -1.8939  -1.8939  -1.2349  -1.2349  -0.2870  -0.2870
    -0.1017  -0.1017   1.0700   1.0700   1.3953   1.3953

          k = 0.2500 0.2500 0.0000 ( 37217 PWs)   bands (ev):

    -8.8259  -8.1547  -7.0584  -5.5953  -4.3652  -4.3652  -3.7828  -3.7155
    -3.7155  -2.6394  -2.6393  -1.6084  -1.2215  -1.2214  -0.1136  -0.0306
     0.5398   0.5398   0.6056   1.6419   2.6573   2.6573

          k = 0.2500 0.3125 0.0000 ( 37224 PWs)   bands (ev):

    -8.5070  -7.8370  -6.7428  -5.2825  -5.1526  -4.4986  -4.0553  -3.4925
    -3.4738  -3.3329  -2.3427  -1.9837  -1.3248  -0.9290  -0.7689  -0.2057
    -0.1615   0.1862   0.8172   0.8910   1.9660   2.3021

          k = 0.2500 0.3750 0.0000 ( 37195 PWs)   bands (ev):

    -8.1181  -7.4498  -6.3581  -5.8781  -5.2196  -4.9013  -4.1459  -3.6813
    -3.0975  -3.0222  -2.7044  -1.9585  -1.5309  -0.9461  -0.8960  -0.8574
    -0.5191   0.1995   0.5310   1.0104   1.4608   1.6252

          k = 0.2500 0.4375 0.0000 ( 37231 PWs)   bands (ev):

    -7.6600  -6.9935  -6.5389  -5.9049  -5.8772  -4.7969  -4.4525  -3.3751
    -3.2125  -2.6561  -2.5854  -2.1527  -1.5626  -1.5228  -1.4925  -0.5527
    -0.3587  -0.1064   0.5722   0.8088   1.1432   1.7051

          k = 0.2500-0.5000 0.0000 ( 37208 PWs)   bands (ev):

    -7.1332  -7.1332  -6.4690  -6.4690  -5.3841  -5.3841  -3.9374  -3.9374
    -2.7235  -2.7235  -2.1921  -2.1921  -2.0206  -2.0206  -1.0222  -1.0222
     0.0337   0.0337   0.3798   0.3798   1.4924   1.4924

          k = 0.3125 0.3125 0.0000 ( 37223 PWs)   bands (ev):

    -8.1887  -7.5201  -6.4280  -4.9706  -4.8425  -4.8425  -4.1902  -4.1902
    -3.1660  -3.1101  -3.1101  -1.6887  -1.6886  -1.5953  -0.9638  -0.9214
     0.0803   0.0803   0.1364   0.4648   1.5632   2.2161

          k = 0.3125 0.3750 0.0000 ( 37249 PWs)   bands (ev):

    -7.8007  -7.1337  -6.0442  -5.5658  -4.9099  -4.5905  -4.4625  -3.8984
    -3.7402  -2.7924  -2.7427  -2.3904  -2.2837  -1.6231  -1.3283  -0.6868
    -0.6037  -0.4886   0.4238   0.6775   1.0155   1.5805

          k = 0.3125 0.4375 0.0000 ( 37234 PWs)   bands (ev):

    -7.3436  -6.6785  -6.2250  -5.5922  -5.5650  -4.4887  -4.1435  -4.0186
    -3.3578  -3.0435  -2.9225  -2.3916  -2.2926  -2.2233  -1.2836  -1.2189
    -0.8472  -0.1672   0.1855   0.6797   1.1396   1.2957

          k = 0.3125-0.5000 0.0000 ( 37220 PWs)   bands (ev):

    -6.8180  -6.8180  -6.1552  -6.1552  -5.0729  -5.0729  -3.6474  -3.6474
    -3.4815  -3.4815  -2.8515  -2.8515  -1.8340  -1.8340  -1.7876  -1.7876
    -0.3676  -0.3676   0.3058   0.3058   1.4493   1.4493

          k = 0.3750 0.3750 0.0000 ( 37286 PWs)   bands (ev):

    -7.4138  -6.7484  -5.6616  -5.1855  -5.1855  -4.5314  -4.5314  -4.2123
    -3.4490  -3.4489  -2.9892  -2.4582  -2.2912  -2.0252  -2.0251  -1.2849
    -0.2511  -0.2511  -0.2343   0.1203   1.2300   1.8929

          k = 0.3750 0.4375 0.0000 ( 37232 PWs)   bands (ev):

    -6.9578  -6.2944  -5.8424  -5.2112  -5.1852  -4.7356  -4.1701  -4.0137
    -3.7839  -3.6167  -3.0113  -2.9853  -2.6630  -1.9701  -1.9208  -1.5964
    -0.8708  -0.4990   0.1595   0.1719   1.3195   1.3203

          k = 0.3750-0.5000 0.0000 ( 37250 PWs)   bands (ev):

    -6.4337  -6.4337  -5.7728  -5.7728  -4.6950  -4.6950  -4.2222  -4.2222
    -3.5604  -3.5604  -3.2477  -3.2477  -2.4944  -2.4944  -1.4869  -1.4869
    -1.0455  -1.0455   0.4801   0.4801   0.9446   0.9446

          k = 0.4375 0.4375 0.0000 ( 37288 PWs)   bands (ev):

    -6.5034  -5.8421  -5.3921  -5.3921  -4.7639  -4.7370  -4.7370  -4.2902
    -3.6532  -3.6531  -3.6282  -3.3159  -2.5619  -2.2280  -2.2279  -1.5548
    -1.1118  -0.4509  -0.4509   0.4134   0.8793   1.6970

          k = 0.4375-0.5000 0.0000 ( 37302 PWs)   bands (ev):

    -5.9810  -5.9810  -5.3231  -5.3231  -4.8726  -4.8726  -4.3062  -4.3062
    -4.1510  -4.1510  -3.1461  -3.1461  -2.7997  -2.7997  -1.7311  -1.7311
    -1.0047  -1.0047   0.0267   0.0267   1.1881   1.1881

          k =-0.5000-0.5000 0.0000 ( 37264 PWs)   bands (ev):

    -5.4611  -5.4611  -5.4611  -5.4611  -4.8056  -4.8056  -4.8056  -4.8056
    -3.7214  -3.7214  -3.7213  -3.7213  -2.2957  -2.2957  -2.2957  -2.2957
    -0.5177  -0.5177  -0.5177  -0.5177   1.6315   1.6315

     the Fermi energy is     1.0524 ev

!    total energy              =    -149.45909181 Ry
     Harris-Foulkes estimate   =    -149.45909182 Ry
     estimated scf accuracy    <          6.2E-09 Ry

     The total energy is the sum of the following terms:

     one-electron contribution =    -779.37055355 Ry
     hartree contribution      =     398.47663060 Ry
     xc contribution           =    -119.99548242 Ry
     ewald contribution        =     351.43076791 Ry
     smearing contrib. (-TS)   =      -0.00045436 Ry

     convergence has been achieved in  10 iterations

     Forces acting on atoms (Ry/au):


     negative rho (up, down):  5.995E-06 0.000E+00
     atom    1 type  1   force =     0.00000000    0.00000000   -0.00198413
     atom    2 type  1   force =     0.00000000    0.00000000   -0.00198414
     atom    3 type  1   force =     0.00000000    0.00000000    0.00123376
     atom    4 type  1   force =     0.00000000    0.00000000    0.00123376
     atom    5 type  1   force =     0.00000000    0.00000000   -0.00008372
     atom    6 type  1   force =     0.00000000    0.00000000   -0.00008366
     atom    7 type  1   force =     0.00000000    0.00000000    0.00008163
     atom    8 type  1   force =     0.00000000    0.00000000    0.00008163
     atom    9 type  1   force =     0.00000000    0.00000000   -0.00122577
     atom   10 type  1   force =     0.00000000    0.00000000   -0.00122582
     atom   11 type  1   force =     0.00000000    0.00000000    0.00197823
     atom   12 type  1   force =     0.00000000    0.00000000    0.00197823

     Total force =     0.004667     Total SCF correction =     0.000136


     entering subroutine stress ...


     negative rho (up, down):  5.995E-06 0.000E+00
          total   stress  (Ry/bohr**3)                   (kbar)     P=   -6.02
  -0.00006906   0.00000000   0.00000000        -10.16      0.00      0.00
   0.00000000  -0.00006906   0.00000000          0.00    -10.16      0.00
   0.00000000   0.00000000   0.00001536          0.00      0.00      2.26


     number of scf cycles    =   3
     number of bfgs steps    =   2

     energy   old            =    -149.4590571808 Ry
     energy   new            =    -149.4590918107 Ry

     CASE: energy  _new < energy  _old

     new trust radius        =       0.0040920709 bohr
     new conv_thr            =       0.0000000100 Ry


ATOMIC_POSITIONS (crystal)
Al       0.000000000   0.000000000  -0.000174699
Al       0.500000000   0.500000000  -0.000174700
Al       0.500000000   0.000000000   0.071551664
Al       0.000000000   0.500000000   0.071551664
Al       0.000000000   0.000000000   0.142839776
Al       0.500000000   0.500000000   0.142839781
Al       0.500000000   0.000000000   0.214302940
Al       0.000000000   0.500000000   0.214302940
Al       0.000000000   0.000000000   0.285592192
Al       0.500000000   0.500000000   0.285592192
Al       0.500000000   0.000000000   0.357316697
Al       0.000000000   0.500000000   0.357316697



     Writing output data file Al_100_3_4.save
     NEW-OLD atomic charge density approx. for the potential

     negative rho (up, down):  5.720E-06 0.000E+00

     total cpu time spent up to now is     3455.9 secs

     per-process dynamical memory:   696.9 Mb

     Self-consistent Calculation

     iteration #  1     ecut=    80.00 Ry     beta=0.30
     Davidson diagonalization with overlap
     ethr =  1.00E-06,  avg # of iterations =  2.1

     Threshold (ethr) on eigenvalues was too large:
     Diagonalizing with lowered threshold

     Davidson diagonalization with overlap
     ethr =  3.99E-08,  avg # of iterations =  3.3

     negative rho (up, down):  5.083E-06 0.000E+00

     total cpu time spent up to now is     3664.0 secs

     total energy              =    -149.45913247 Ry
     Harris-Foulkes estimate   =    -149.45913350 Ry
     estimated scf accuracy    <       0.00001802 Ry

     iteration #  2     ecut=    80.00 Ry     beta=0.30
     Davidson diagonalization with overlap
     ethr =  5.00E-08,  avg # of iterations =  1.0

     negative rho (up, down):  3.564E-06 0.000E+00

     total cpu time spent up to now is     3749.5 secs

     total energy              =    -149.45913013 Ry
     Harris-Foulkes estimate   =    -149.45913261 Ry
     estimated scf accuracy    <       0.00001075 Ry

     iteration #  3     ecut=    80.00 Ry     beta=0.30
     Davidson diagonalization with overlap
     ethr =  2.99E-08,  avg # of iterations =  2.5

     negative rho (up, down):  4.092E-06 0.000E+00

     total cpu time spent up to now is     3845.6 secs

     total energy              =    -149.45913142 Ry
     Harris-Foulkes estimate   =    -149.45913160 Ry
     estimated scf accuracy    <       0.00000095 Ry

     iteration #  4     ecut=    80.00 Ry     beta=0.30
     Davidson diagonalization with overlap
     ethr =  2.64E-09,  avg # of iterations =  2.6

     negative rho (up, down):  3.685E-06 0.000E+00

     total cpu time spent up to now is     3947.6 secs

     total energy              =    -149.45913155 Ry
     Harris-Foulkes estimate   =    -149.45913157 Ry
     estimated scf accuracy    <       0.00000009 Ry

     iteration #  5     ecut=    80.00 Ry     beta=0.30
     Davidson diagonalization with overlap
     ethr =  2.48E-10,  avg # of iterations =  3.2

     negative rho (up, down):  4.412E-06 0.000E+00

     total cpu time spent up to now is     4048.1 secs

     total energy              =    -149.45913151 Ry
     Harris-Foulkes estimate   =    -149.45913158 Ry
     estimated scf accuracy    <       0.00000048 Ry

     iteration #  6     ecut=    80.00 Ry     beta=0.30
     Davidson diagonalization with overlap
     ethr =  2.48E-10,  avg # of iterations =  3.1

     negative rho (up, down):  4.415E-06 0.000E+00

     total cpu time spent up to now is     4159.0 secs

     total energy              =    -149.45913155 Ry
     Harris-Foulkes estimate   =    -149.45913155 Ry
     estimated scf accuracy    <       0.00000004 Ry

     iteration #  7     ecut=    80.00 Ry     beta=0.30
     Davidson diagonalization with overlap
     ethr =  1.04E-10,  avg # of iterations =  1.2

     negative rho (up, down):  4.846E-06 0.000E+00

     total cpu time spent up to now is     4244.9 secs

     total energy              =    -149.45913155 Ry
     Harris-Foulkes estimate   =    -149.45913155 Ry
     estimated scf accuracy    <       0.00000001 Ry

     iteration #  8     ecut=    80.00 Ry     beta=0.30
     Davidson diagonalization with overlap
     ethr =  3.95E-11,  avg # of iterations =  3.0

     negative rho (up, down):  5.244E-06 0.000E+00

     total cpu time spent up to now is     4344.9 secs

     total energy              =    -149.45913155 Ry
     Harris-Foulkes estimate   =    -149.45913155 Ry
     estimated scf accuracy    <       0.00000004 Ry

     iteration #  9     ecut=    80.00 Ry     beta=0.30
     Davidson diagonalization with overlap
     ethr =  3.95E-11,  avg # of iterations =  2.6

     negative rho (up, down):  5.964E-06 0.000E+00

     total cpu time spent up to now is     4440.2 secs

     End of self-consistent calculation

          k = 0.0000 0.0000 0.0000 ( 37267 PWs)   bands (ev):

    -9.9646  -9.2852  -8.1798  -6.7130  -4.8905  -2.6999  -1.6965  -1.6965
    -1.1682  -1.0705  -1.0705  -0.3282  -0.3282  -0.0462  -0.0462   0.3132
     0.3132   1.3210   1.3210   1.4652   1.4652   1.6746

          k = 0.0000 0.0625 0.0000 ( 37205 PWs)   bands (ev):

    -9.9289  -9.2496  -8.1445  -6.6779  -4.8558  -2.6654  -2.2653  -1.6637
    -1.6278  -1.1350  -1.0377  -0.5935  -0.2932  -0.0134   0.2804   0.4005
     0.7787   0.9171   1.3538   1.5572   1.7073   2.0215

          k = 0.0000 0.1250 0.0000 ( 37193 PWs)   bands (ev):

    -9.8217  -9.1429  -8.0384  -6.5728  -4.7516  -3.1671  -2.5621  -2.5202
    -1.5653  -1.4687  -1.0356  -0.9393  -0.2345  -0.0163   0.0850   0.4762
     1.3873   1.4520   1.5231   1.6996   1.8048   2.1096

          k = 0.0000 0.1875 0.0000 ( 37198 PWs)   bands (ev):

    -9.6432  -8.9651  -7.8618  -6.3976  -4.5783  -4.0643  -3.4112  -2.3900
    -2.3488  -1.4012  -0.9455  -0.8700  -0.7752  -0.0031   0.2490   0.5614
     0.9389   1.6158   1.7322   1.9652   2.5688   2.9446

          k = 0.0000 0.2500 0.0000 ( 37192 PWs)   bands (ev):

    -9.3937  -8.7166  -7.6149  -6.1528  -4.9141  -4.3360  -4.2563  -3.1859
    -2.1498  -1.7678  -1.1715  -0.6384  -0.5455  -0.0246   0.2232   0.4786
     0.9508   1.8450   1.9163   2.1827   2.2457   3.0332

          k = 0.0000 0.3125 0.0000 ( 37174 PWs)   bands (ev):

    -9.0735  -8.3977  -7.2980  -5.8387  -5.7055  -5.0439  -4.0251  -3.9672
    -2.5394  -1.8421  -0.8761  -0.7708  -0.3410  -0.2501   0.4954   0.7739
     1.2403   1.4379   2.1397   2.2775   2.3215   2.4375

          k = 0.0000 0.3750 0.0000 ( 37172 PWs)   bands (ev):

    -8.6832  -8.0089  -6.9118  -6.4342  -5.7693  -5.4558  -4.6872  -3.6463
    -3.2519  -1.4702  -1.4679  -0.5149   0.0218   0.1110   0.5474   1.0782
     1.1347   1.5875   1.6022   2.1139   2.2126   2.4998

          k = 0.0000 0.4375 0.0000 ( 37222 PWs)   bands (ev):

    -8.2232  -7.5508  -7.0977  -6.4567  -6.4300  -5.3433  -5.0047  -3.9015
    -3.2002  -2.1105  -1.0290  -0.0880   0.0232   0.4493   0.5378   0.9632
     1.4039   1.4891   1.5612   1.5886   2.0493   2.3505

          k = 0.0000-0.5000 0.0000 ( 37186 PWs)   bands (ev):

    -7.6944  -7.6944  -7.0242  -7.0242  -5.9335  -5.9335  -4.4863  -4.4863
    -2.6878  -2.6878  -0.5287  -0.5287   0.4047   0.4047   0.9401   0.9401
     1.0304   1.0304   1.8663   1.8663   2.0533   2.0533

          k = 0.0625 0.0625 0.0000 ( 37181 PWs)   bands (ev):

    -9.8931  -9.2140  -8.1091  -6.6429  -4.8211  -2.6310  -2.2321  -2.2321
    -1.5951  -1.5951  -1.1019  -0.5526  -0.5526   0.3302   0.3302   0.8355
     0.8355   0.9848   0.9848   1.7396   2.0952   2.0953

          k = 0.0625 0.1250 0.0000 ( 37200 PWs)   bands (ev):

    -9.7860  -9.1073  -8.0030  -6.5377  -4.7170  -3.1333  -2.5276  -2.4873
    -2.1312  -1.5286  -1.3954  -1.0025  -0.4561  -0.0357   0.4557   0.9224
     1.0709   1.4352   1.7544   1.8356   1.9465   2.2921

          k = 0.0625 0.1875 0.0000 ( 37177 PWs)   bands (ev):

    -9.6075  -8.9296  -7.8265  -6.3626  -4.5436  -4.0301  -3.3774  -2.3557
    -2.3168  -1.9656  -1.3217  -0.9077  -0.8370  -0.2767   0.6127   0.7966
     1.1128   1.3342   1.9901   2.3062   2.7305   3.1065

          k = 0.0625 0.2500 0.0000 ( 37203 PWs)   bands (ev):

    -9.3581  -8.6812  -7.5796  -6.1179  -4.8796  -4.3014  -4.2221  -3.1523
    -2.1157  -1.7772  -1.6857  -1.0923  -0.6055  -0.0478   0.0277   0.8336
     1.3343   1.5370   2.1556   2.1609   2.6007   2.6056

          k = 0.0625 0.3125 0.0000 ( 37175 PWs)   bands (ev):

    -9.0380  -8.3623  -7.2629  -5.8039  -5.6708  -5.0094  -3.9907  -3.9330
    -2.5064  -1.8084  -1.4290  -0.8383  -0.6822  -0.3083   0.2484   1.0497
     1.5415   1.6251   1.7279   1.8320   2.3819   2.5506

          k = 0.0625 0.3750 0.0000 ( 37193 PWs)   bands (ev):

    -8.6477  -7.9737  -6.8767  -6.3993  -5.7346  -5.4211  -4.6528  -3.6120
    -3.2180  -1.4389  -1.4349  -1.0657  -0.4175   0.0541   0.5771   0.7233
     1.0580   1.5869   1.6948   1.9317   2.1594   2.2582

          k = 0.0625 0.4375 0.0000 ( 37206 PWs)   bands (ev):

    -8.1879  -7.5157  -7.0626  -6.4217  -6.3951  -5.3086  -4.9701  -3.8673
    -3.1661  -2.0772  -0.9982  -0.6428   0.0111   0.0870   0.4385   0.4802
     1.0509   1.0705   1.5178   1.9811   2.1005   2.4422

          k = 0.0625-0.5000 0.0000 ( 37210 PWs)   bands (ev):

    -7.6592  -7.6592  -6.9892  -6.9892  -5.8987  -5.8987  -4.4518  -4.4518
    -2.6540  -2.6540  -0.5160  -0.5160  -0.1022  -0.1022   0.5059   0.5059
     0.9733   0.9733   1.5432   1.5432   2.4387   2.4387

          k = 0.1250 0.1250 0.0000 ( 37179 PWs)   bands (ev):

    -9.6789  -9.0007  -7.8971  -6.4327  -4.6129  -3.0321  -3.0321  -2.4245
    -2.3872  -2.3872  -1.3253  -1.3253  -0.9033   0.0705   0.0705   1.5216
     1.5217   1.7744   1.7744   1.9237   2.2155   2.2155

          k = 0.1250 0.1875 0.0000 ( 37156 PWs)   bands (ev):

    -9.5006  -8.8231  -7.7206  -6.2577  -4.4398  -3.9277  -3.2765  -2.8619
    -2.2872  -2.2530  -2.1366  -1.1672  -0.7876  -0.7380   0.2318   0.9565
     1.6780   1.9592   2.0219   2.3595   2.5754   2.7181

          k = 0.1250 0.2500 0.0000 ( 37165 PWs)   bands (ev):

    -9.2513  -8.5748  -7.4740  -6.0132  -4.7763  -4.1978  -4.1195  -3.0526
    -2.6274  -2.0136  -1.9727  -1.6305  -0.9154  -0.5069   0.1162   0.4967
     1.6038   1.8333   2.1196   2.2771   2.4085   2.4955

          k = 0.1250 0.3125 0.0000 ( 37207 PWs)   bands (ev):

    -8.9315  -8.2562  -7.1575  -5.6994  -5.5668  -4.9059  -3.8873  -3.8308
    -2.4301  -2.2935  -1.7075  -1.6753  -0.6246  -0.6184  -0.2105   0.7774
     0.8839   1.4576   1.5282   2.2775   2.5163   2.5688

          k = 0.1250 0.3750 0.0000 ( 37189 PWs)   bands (ev):

    -8.5415  -7.8678  -6.7716  -6.2947  -5.6305  -5.3169  -4.5496  -3.5090
    -3.1168  -1.9489  -1.4008  -1.3373  -1.2303  -0.2546   0.1498   0.2013
     0.8170   0.8384   1.1311   1.8736   2.2678   2.6110

          k = 0.1250 0.4375 0.0000 ( 37163 PWs)   bands (ev):

    -8.0820  -7.4102  -6.9575  -6.3169  -6.2904  -5.2048  -4.8663  -3.7647
    -3.0637  -1.9785  -1.5164  -0.9201  -0.8574  -0.4055   0.1046   0.2032
     0.2759   0.5802   1.2507   1.4549   1.7616   2.6469

          k = 0.1250-0.5000 0.0000 ( 37170 PWs)   bands (ev):

    -7.5537  -7.5537  -6.8841  -6.8841  -5.7943  -5.7943  -4.3485  -4.3485
    -2.5526  -2.5526  -1.0293  -1.0293  -0.3622  -0.3622  -0.3593  -0.3593
     0.6914   0.6914   1.0584   1.0584   2.0992   2.0992

          k = 0.1875 0.1875 0.0000 ( 37147 PWs)   bands (ev):

    -9.3225  -8.6457  -7.5444  -6.0830  -4.2669  -3.7574  -3.7574  -3.1076
    -3.1076  -2.0822  -2.0356  -2.0356  -0.6295  -0.6295  -0.5731   1.1183
     1.1183   1.5519   2.2300   2.3530   2.8267   2.8267

          k = 0.1875 0.2500 0.0000 ( 37175 PWs)   bands (ev):

    -9.0735  -8.3977  -7.2981  -5.8388  -4.6043  -4.0253  -3.9495  -3.5175
[...]
Al       0.000000000   0.000000000   0.285457277
Al       0.500000000   0.500000000   0.285457273
Al       0.500000000   0.000000000   0.357589819
Al       0.000000000   0.500000000   0.357589819



     Writing output data file Al_100_3_4.save
     NEW-OLD atomic charge density approx. for the potential

     negative rho (up, down):  5.448E-06 0.000E+00

     total cpu time spent up to now is     5427.9 secs

     per-process dynamical memory:   696.9 Mb

     Self-consistent Calculation

     iteration #  1     ecut=    80.00 Ry     beta=0.30
     Davidson diagonalization with overlap
     ethr =  1.00E-06,  avg # of iterations =  3.0

     negative rho (up, down):  4.168E-06 0.000E+00

     total cpu time spent up to now is     5549.1 secs

     total energy              =    -149.45919233 Ry
     Harris-Foulkes estimate   =    -149.45919495 Ry
     estimated scf accuracy    <       0.00004097 Ry

     iteration #  2     ecut=    80.00 Ry     beta=0.30
     Davidson diagonalization with overlap
     ethr =  1.14E-07,  avg # of iterations =  2.0

     negative rho (up, down):  2.560E-06 0.000E+00

     total cpu time spent up to now is     5638.8 secs

     total energy              =    -149.45918811 Ry
     Harris-Foulkes estimate   =    -149.45919483 Ry
     estimated scf accuracy    <       0.00002545 Ry

     iteration #  3     ecut=    80.00 Ry     beta=0.30
     Davidson diagonalization with overlap
     ethr =  7.07E-08,  avg # of iterations =  2.3

     negative rho (up, down):  3.161E-06 0.000E+00

     total cpu time spent up to now is     5734.7 secs

     total energy              =    -149.45919144 Ry
     Harris-Foulkes estimate   =    -149.45919156 Ry
     estimated scf accuracy    <       0.00000118 Ry

     iteration #  4     ecut=    80.00 Ry     beta=0.30
     Davidson diagonalization with overlap
     ethr =  3.27E-09,  avg # of iterations =  2.5

     negative rho (up, down):  1.727E-06 0.000E+00

     total cpu time spent up to now is     5844.0 secs

     total energy              =    -149.45919166 Ry
     Harris-Foulkes estimate   =    -149.45919165 Ry
     estimated scf accuracy    <       0.00000037 Ry

     iteration #  5     ecut=    80.00 Ry     beta=0.30
     Davidson diagonalization with overlap
     ethr =  1.04E-09,  avg # of iterations =  3.4

     negative rho (up, down):  4.729E-06 0.000E+00

     total cpu time spent up to now is     5962.3 secs

     total energy              =    -149.45919119 Ry
     Harris-Foulkes estimate   =    -149.45919195 Ry
     estimated scf accuracy    <       0.00000688 Ry

     iteration #  6     ecut=    80.00 Ry     beta=0.30
     Davidson diagonalization with overlap
     ethr =  1.04E-09,  avg # of iterations =  3.2

     negative rho (up, down):  4.656E-06 0.000E+00

     total cpu time spent up to now is     6079.2 secs

     total energy              =    -149.45919158 Ry
     Harris-Foulkes estimate   =    -149.45919158 Ry
     estimated scf accuracy    <       0.00000006 Ry

     iteration #  7     ecut=    80.00 Ry     beta=0.30
     Davidson diagonalization with overlap
     ethr =  1.67E-10,  avg # of iterations =  1.0

     negative rho (up, down):  4.838E-06 0.000E+00

     total cpu time spent up to now is     6165.2 secs

     total energy              =    -149.45919158 Ry
     Harris-Foulkes estimate   =    -149.45919158 Ry
     estimated scf accuracy    <       0.00000003 Ry

     iteration #  8     ecut=    80.00 Ry     beta=0.30
     Davidson diagonalization with overlap
     ethr =  9.06E-11,  avg # of iterations =  1.0

     negative rho (up, down):  5.100E-06 0.000E+00

     total cpu time spent up to now is     6249.4 secs

     total energy              =    -149.45919158 Ry
     Harris-Foulkes estimate   =    -149.45919158 Ry
     estimated scf accuracy    <       0.00000001 Ry

     iteration #  9     ecut=    80.00 Ry     beta=0.30
     Davidson diagonalization with overlap
     ethr =  2.81E-11,  avg # of iterations =  1.0

     negative rho (up, down):  5.843E-06 0.000E+00

     total cpu time spent up to now is     6329.1 secs

     End of self-consistent calculation

          k = 0.0000 0.0000 0.0000 ( 37267 PWs)   bands (ev):

    -9.9605  -9.2689  -8.1605  -6.7109  -4.8954  -2.7053  -1.6925  -1.6925
    -1.1739  -1.0532  -1.0532  -0.3237  -0.3237  -0.0241  -0.0241   0.3275
     0.3275   1.3235   1.3235   1.4851   1.4852   1.6668

          k = 0.0000 0.0625 0.0000 ( 37205 PWs)   bands (ev):

    -9.9248  -9.2333  -8.1251  -6.6758  -4.8606  -2.6708  -2.2612  -1.6597
    -1.6109  -1.1408  -1.0204  -0.5727  -0.2893   0.0087   0.2893   0.4112
     0.7856   0.9285   1.3563   1.5761   1.6995   2.0420

          k = 0.0000 0.1250 0.0000 ( 37193 PWs)   bands (ev):

    -9.8176  -9.1266  -8.0190  -6.5706  -4.7565  -3.1630  -2.5674  -2.5035
    -1.5613  -1.4484  -1.0413  -0.9219  -0.2326  -0.0109   0.1071   0.4925
     1.3905   1.4545   1.5386   1.6938   1.7971   2.1276

          k = 0.0000 0.1875 0.0000 ( 37198 PWs)   bands (ev):

    -9.6391  -8.9488  -7.8424  -6.3955  -4.5831  -4.0603  -3.3947  -2.3954
    -2.3287  -1.3972  -0.9430  -0.8757  -0.7579   0.0015   0.2711   0.5730
     0.9379   1.6183   1.7484   1.9576   2.5715   2.9417

          k = 0.0000 0.2500 0.0000 ( 37192 PWs)   bands (ev):

    -9.3896  -8.7003  -7.5955  -6.1507  -4.9100  -4.3408  -4.2398  -3.1660
    -2.1552  -1.7653  -1.1675  -0.6441  -0.5281  -0.0280   0.2274   0.5008
     0.9650   1.8475   1.9257   2.1754   2.2495   3.0372

          k = 0.0000 0.3125 0.0000 ( 37174 PWs)   bands (ev):

    -9.0694  -8.3814  -7.2786  -5.8365  -5.7014  -5.0275  -4.0299  -3.9474
    -2.5370  -1.8474  -0.8720  -0.7751  -0.3466  -0.2327   0.4993   0.7960
     1.2554   1.4331   2.1421   2.2816   2.3397   2.4312

          k = 0.0000 0.3750 0.0000 ( 37172 PWs)   bands (ev):

    -8.6791  -7.9926  -6.8923  -6.4301  -5.7529  -5.4536  -4.6675  -3.6510
    -3.2495  -1.4747  -1.4732  -0.5109   0.0163   0.1284   0.5454   1.0791
     1.1570   1.5915   1.6170   2.1101   2.2302   2.5022

          k = 0.0000 0.4375 0.0000 ( 37222 PWs)   bands (ev):

    -8.2191  -7.5345  -7.0936  -6.4372  -6.4136  -5.3237  -5.0025  -3.8992
    -3.2049  -2.1150  -1.0342  -0.0840   0.0184   0.4439   0.5553   0.9672
     1.4075   1.4840   1.5835   1.6062   2.0653   2.3534

          k = 0.0000-0.5000 0.0000 ( 37186 PWs)   bands (ev):

    -7.6903  -7.6903  -7.0079  -7.0079  -5.9140  -5.9140  -4.4840  -4.4840
    -2.6924  -2.6924  -0.5338  -0.5338   0.4087   0.4087   0.9348   0.9348
     1.0479   1.0479   1.8700   1.8700   2.0756   2.0756

          k = 0.0625 0.0625 0.0000 ( 37181 PWs)   bands (ev):

    -9.8890  -9.1977  -8.0897  -6.6408  -4.8259  -2.6364  -2.2280  -2.2280
    -1.5782  -1.5782  -1.1076  -0.5315  -0.5315   0.3340   0.3340   0.8401
     0.8401   0.9989   0.9989   1.7318   2.1148   2.1149

          k = 0.0625 0.1250 0.0000 ( 37200 PWs)   bands (ev):

    -9.7819  -9.0910  -7.9837  -6.5356  -4.7218  -3.1292  -2.5330  -2.4706
    -2.1272  -1.5115  -1.3751  -1.0082  -0.4349  -0.0336   0.4605   0.9250
     1.0869   1.4386   1.7495   1.8279   1.9615   2.3112

          k = 0.0625 0.1875 0.0000 ( 37177 PWs)   bands (ev):

    -9.6034  -8.9133  -7.8071  -6.3605  -4.5485  -4.0261  -3.3608  -2.3611
    -2.2968  -1.9617  -1.3046  -0.9046  -0.8427  -0.2561   0.6170   0.7946
     1.1154   1.3473   1.9827   2.3229   2.6229   2.7271

          k = 0.0625 0.2500 0.0000 ( 37203 PWs)   bands (ev):

    -9.3540  -8.6648  -7.5602  -6.1158  -4.8756  -4.3062  -4.2056  -3.1324
    -2.1211  -1.7750  -1.6813  -1.0752  -0.6112  -0.0268   0.0234   0.8378
     1.3370   1.5525   2.1506   2.1572   2.6023   2.6235

          k = 0.0625 0.3125 0.0000 ( 37175 PWs)   bands (ev):

    -9.0339  -8.3460  -7.2435  -5.8017  -5.6667  -4.9930  -3.9954  -3.9133
    -2.5040  -1.8137  -1.4249  -0.8279  -0.6802  -0.3139   0.2693   1.0521
     1.5386   1.6277   1.7316   1.8478   2.3993   2.5441

          k = 0.0625 0.3750 0.0000 ( 37193 PWs)   bands (ev):

    -8.6436  -7.9573  -6.8573  -6.3952  -5.7182  -5.4189  -4.6331  -3.6167
    -3.2156  -1.4432  -1.4402  -1.0616  -0.4007   0.0486   0.5893   0.7280
     1.0620   1.5903   1.7121   1.9324   2.1666   2.2645

          k = 0.0625 0.4375 0.0000 ( 37206 PWs)   bands (ev):

    -8.1838  -7.4993  -7.0585  -6.4022  -6.3787  -5.2890  -4.9678  -3.8649
    -3.1707  -2.0817  -1.0033  -0.6388   0.0281   0.0822   0.4425   0.4748
     1.0722   1.0877   1.5129   1.9849   2.1219   2.4448

          k = 0.0625-0.5000 0.0000 ( 37210 PWs)   bands (ev):

    -7.6551  -7.6551  -6.9728  -6.9728  -5.8792  -5.8792  -4.4495  -4.4495
    -2.6586  -2.6586  -0.5204  -0.5204  -0.0988  -0.0988   0.5228   0.5228
     0.9682   0.9682   1.5647   1.5647   2.4424   2.4424

          k = 0.1250 0.1250 0.0000 ( 37179 PWs)   bands (ev):

    -9.6748  -8.9843  -7.8777  -6.4305  -4.6178  -3.0280  -3.0280  -2.4299
    -2.3707  -2.3706  -1.3047  -1.3046  -0.9090   0.0728   0.0729   1.5264
     1.5264   1.7720   1.7720   1.9163   2.2282   2.2282

          k = 0.1250 0.1875 0.0000 ( 37156 PWs)   bands (ev):

    -9.4965  -8.8068  -7.7013  -6.2556  -4.4446  -3.9236  -3.2599  -2.8580
    -2.2698  -2.2584  -2.1171  -1.1465  -0.7853  -0.7437   0.2338   0.9527
     1.6823   1.9546   2.0167   2.3755   2.5770   2.7215

          k = 0.1250 0.2500 0.0000 ( 37165 PWs)   bands (ev):

    -9.2472  -8.5585  -7.4546  -6.0110  -4.7722  -4.2026  -4.1030  -3.0328
    -2.6235  -2.0190  -1.9558  -1.6273  -0.8955  -0.5125   0.1112   0.4998
     1.6072   1.8361   2.1166   2.2944   2.4019   2.4904

          k = 0.1250 0.3125 0.0000 ( 37207 PWs)   bands (ev):

    -8.9274  -8.2399  -7.1380  -5.6972  -5.5627  -4.8895  -3.8921  -3.8111
    -2.4282  -2.2887  -1.7128  -1.6584  -0.6294  -0.5982  -0.2160   0.7802
     0.8878   1.4541   1.5454   2.2805   2.5300   2.5636

          k = 0.1250 0.3750 0.0000 ( 37189 PWs)   bands (ev):

    -8.5374  -7.8515  -6.7521  -6.2906  -5.6141  -5.3147  -4.5299  -3.5137
    -3.1144  -1.9448  -1.3961  -1.3425  -1.2229  -0.2345   0.1443   0.2053
     0.8129   0.8554   1.1338   1.8947   2.2633   2.6146

          k = 0.1250 0.4375 0.0000 ( 37163 PWs)   bands (ev):

    -8.0779  -7.3938  -6.9534  -6.2975  -6.2740  -5.1852  -4.8641  -3.7623
    -3.0684  -1.9828  -1.5123  -0.9246  -0.8409  -0.4022   0.1104   0.2196
     0.2859   0.5754   1.2717   1.4547   1.7598   2.6496

          k = 0.1250-0.5000 0.0000 ( 37170 PWs)   bands (ev):

    -7.5496  -7.5496  -6.8677  -6.8677  -5.7748  -5.7748  -4.3462  -4.3462
    -2.5572  -2.5572  -1.0254  -1.0254  -0.3672  -0.3672  -0.3426  -0.3426
     0.7123   0.7123   1.0535   1.0535   2.1018   2.1018

          k = 0.1875 0.1875 0.0000 ( 37147 PWs)   bands (ev):

    -9.3184  -8.6294  -7.5250  -6.0809  -4.2717  -3.7533  -3.7533  -3.0912
    -3.0912  -2.0876  -2.0152  -2.0151  -0.6273  -0.6272  -0.5788   1.1140
     1.1141   1.5552   2.2473   2.3463   2.8295   2.8295

          k = 0.1875 0.2500 0.0000 ( 37175 PWs)   bands (ev):

    -9.0694  -8.3814  -7.2787  -5.8366  -4.6003  -4.0300  -3.9329  -3.5136
    -2.9324  -2.7716  -1.8496  -1.7888  -1.4443  -0.4024  -0.3485   0.3141
     0.7796   1.3279   1.4398   2.4177   2.4358   2.6216

          k = 0.1875 0.3125 0.0000 ( 37186 PWs)   bands (ev):

    -8.7500  -8.0632  -6.9625  -5.5232  -5.3896  -4.7174  -3.7201  -3.6424
    -3.2095  -2.5366  -2.2288  -1.5469  -1.4712  -0.4839  -0.0628  -0.0544
     0.0338   0.6862   1.4628   1.7277   1.8892   2.8420

          k = 0.1875 0.3750 0.0000 ( 37171 PWs)   bands (ev):

    -8.3604  -7.6753  -6.5771  -6.1165  -5.4408  -5.1412  -4.3583  -3.3425
    -2.9664  -2.8076  -2.1697  -1.1952  -1.1641  -1.1046  -0.6405  -0.0174
     0.2829   0.3121   0.9617   1.0397   2.0743   2.4036

          k = 0.1875 0.4375 0.0000 ( 37190 PWs)   bands (ev):

    -7.9015  -7.2182  -6.7785  -6.1230  -6.0998  -5.0123  -4.6913  -3.5922
    -2.8983  -2.3906  -1.8571  -1.6757  -1.3348  -0.7001  -0.6727  -0.6467
     0.3602   0.4137   0.7022   0.7233   1.8111   1.8129

          k = 0.1875-0.5000 0.0000 ( 37202 PWs)   bands (ev):

    -7.3739  -7.3739  -6.6927  -6.6927  -5.6011  -5.6011  -4.1744  -4.1744
    -2.3897  -2.3897  -1.8888  -1.8888  -1.2140  -1.2140  -0.2818  -0.2818
    -0.0862  -0.0862   1.0689   1.0689   1.3933   1.3933

          k = 0.2500 0.2500 0.0000 ( 37217 PWs)   bands (ev):

    -8.8209  -8.1339  -7.0327  -5.5928  -4.3602  -4.3601  -3.7890  -3.6947
    -3.6947  -2.6126  -2.6126  -1.6151  -1.2191  -1.2190  -0.1207  -0.0258
     0.5343   0.5344   0.6272   1.6694   2.6526   2.6527

          k = 0.2500 0.3125 0.0000 ( 37224 PWs)   bands (ev):

    -8.5020  -7.8162  -6.7171  -5.2801  -5.1476  -4.4775  -4.0505  -3.4798
    -3.4699  -3.3081  -2.3158  -1.9814  -1.3308  -0.9272  -0.7648  -0.2105
    -0.1409   0.1801   0.8120   0.9184   1.9598   2.3053

          k = 0.2500 0.3750 0.0000 ( 37195 PWs)   bands (ev):

    -8.1131  -7.4290  -6.3324  -5.8731  -5.1987  -4.8988  -4.1201  -3.6765
    -3.1035  -3.0008  -2.7010  -1.9326  -1.5262  -0.9531  -0.9025  -0.8363
    -0.5152   0.2268   0.5246   1.0065   1.4529   1.6281

          k = 0.2500 0.4375 0.0000 ( 37231 PWs)   bands (ev):

    -7.6549  -6.9727  -6.5338  -5.8792  -5.8563  -4.7710  -4.4499  -3.3732
    -3.2066  -2.6619  -2.5641  -2.1477  -1.5691  -1.4966  -1.4716  -0.5487
    -0.3422  -0.1030   0.5670   0.8075   1.1412   1.6982

          k = 0.2500-0.5000 0.0000 ( 37208 PWs)   bands (ev):

    -7.1282  -7.1282  -6.4481  -6.4481  -5.3583  -5.3583  -3.9349  -3.9349
    -2.7184  -2.7184  -2.1894  -2.1894  -2.0083  -2.0083  -0.9963  -0.9963
     0.0284   0.0284   0.3829   0.3829   1.4865   1.4865

          k = 0.3125 0.3125 0.0000 ( 37223 PWs)   bands (ev):

    -8.1837  -7.4993  -6.4023  -4.9681  -4.8374  -4.8374  -4.1694  -4.1694
    -3.1720  -3.0836  -3.0835  -1.6863  -1.6863  -1.5906  -0.9702  -0.9003
     0.0749   0.0750   0.1637   0.4584   1.5662   2.2114

          k = 0.3125 0.3750 0.0000 ( 37249 PWs)   bands (ev):

    -7.7957  -7.1129  -6.0185  -5.5608  -4.8888  -4.5880  -4.4577  -3.8758
    -3.7156  -2.7983  -2.7159  -2.3882  -2.2787  -1.6022  -1.3266  -0.6832
    -0.6084  -0.4718   0.4188   0.6761   1.0137   1.5743

          k = 0.3125 0.4375 0.0000 ( 37234 PWs)   bands (ev):

    -7.3385  -6.6576  -6.2200  -5.5664  -5.5440  -4.4629  -4.1410  -4.0139
    -3.3365  -3.0402  -2.9174  -2.3895  -2.2668  -2.2104  -1.2906  -1.1931
    -0.8432  -0.1725   0.1886   0.6758   1.1317   1.2897

          k = 0.3125-0.5000 0.0000 ( 37220 PWs)   bands (ev):

    -6.8130  -6.8130  -6.1343  -6.1343  -5.0471  -5.0471  -3.6456  -3.6456
    -3.4756  -3.4756  -2.8302  -2.8302  -1.8405  -1.8405  -1.7615  -1.7615
    -0.3642  -0.3642   0.3005   0.3005   1.4426   1.4426

          k = 0.3750 0.3750 0.0000 ( 37286 PWs)   bands (ev):

    -7.4087  -6.7275  -5.6358  -5.1804  -5.1804  -4.5107  -4.5107  -4.2098
    -3.4225  -3.4225  -2.9841  -2.4563  -2.2782  -2.0228  -2.0228  -1.2591
    -0.2564  -0.2563  -0.2397   0.1235   1.2240   1.8881

          k = 0.3750 0.4375 0.0000 ( 37232 PWs)   bands (ev):

    -6.9528  -6.2736  -5.8374  -5.1854  -5.1641  -4.7308  -4.1474  -3.9892
    -3.7820  -3.6109  -2.9846  -2.9640  -2.6609  -1.9766  -1.8948  -1.5948
    -0.8754  -0.4956   0.1544   0.1666   1.3132   1.3136

          k = 0.3750-0.5000 0.0000 ( 37250 PWs)   bands (ev):

    -6.4287  -6.4287  -5.7519  -5.7519  -4.6692  -4.6692  -4.2174  -4.2174
    -3.5392  -3.5392  -3.2445  -3.2445  -2.4686  -2.4686  -1.4939  -1.4939
    -1.0415  -1.0415   0.4761   0.4761   0.9367   0.9367

          k = 0.4375 0.4375 0.0000 ( 37288 PWs)   bands (ev):

    -6.4984  -5.8212  -5.3870  -5.3870  -4.7381  -4.7163  -4.7163  -4.2854
    -3.6268  -3.6268  -3.6069  -3.3127  -2.5361  -2.2257  -2.2256  -1.5618
    -1.1078  -0.4562  -0.4561   0.4094   0.8714   1.6922

          k = 0.4375-0.5000 0.0000 ( 37302 PWs)   bands (ev):

    -5.9760  -5.9760  -5.3021  -5.3021  -4.8678  -4.8678  -4.2836  -4.2836
    -4.1266  -4.1266  -3.1194  -3.1194  -2.7976  -2.7976  -1.7295  -1.7295
    -1.0093  -1.0093   0.0217   0.0217   1.1818   1.1818

          k =-0.5000-0.5000 0.0000 ( 37264 PWs)   bands (ev):

    -5.4560  -5.4560  -5.4560  -5.4560  -4.7849  -4.7849  -4.7849  -4.7849
    -3.6950  -3.6950  -3.6950  -3.6950  -2.2934  -2.2934  -2.2934  -2.2934
    -0.5229  -0.5229  -0.5229  -0.5229   1.6267   1.6267

     the Fermi energy is     1.0575 ev

!    total energy              =    -149.45919157 Ry
     Harris-Foulkes estimate   =    -149.45919158 Ry
     estimated scf accuracy    <          9.5E-09 Ry

     The total energy is the sum of the following terms:

     one-electron contribution =    -778.29233837 Ry
     hartree contribution      =     397.94542948 Ry
     xc contribution           =    -119.98597341 Ry
     ewald contribution        =     350.87417009 Ry
     smearing contrib. (-TS)   =      -0.00047934 Ry

     convergence has been achieved in   9 iterations

     Forces acting on atoms (Ry/au):


     negative rho (up, down):  5.843E-06 0.000E+00
     atom    1 type  1   force =     0.00000000    0.00000000   -0.00045383
     atom    2 type  1   force =     0.00000000    0.00000000   -0.00045384
     atom    3 type  1   force =     0.00000000    0.00000000   -0.00075981
     atom    4 type  1   force =     0.00000000    0.00000000   -0.00075981
     atom    5 type  1   force =     0.00000000    0.00000000    0.00043199
     atom    6 type  1   force =     0.00000000    0.00000000    0.00043200
     atom    7 type  1   force =     0.00000000    0.00000000   -0.00043030
     atom    8 type  1   force =     0.00000000    0.00000000   -0.00043030
     atom    9 type  1   force =     0.00000000    0.00000000    0.00075738
     atom   10 type  1   force =     0.00000000    0.00000000    0.00075736
     atom   11 type  1   force =     0.00000000    0.00000000    0.00045458
     atom   12 type  1   force =     0.00000000    0.00000000    0.00045458

     Total force =     0.001967     Total SCF correction =     0.000174


     entering subroutine stress ...


     negative rho (up, down):  5.843E-06 0.000E+00
          total   stress  (Ry/bohr**3)                   (kbar)     P=   -6.48
  -0.00007117   0.00000000   0.00000000        -10.47      0.00      0.00
   0.00000000  -0.00007117   0.00000000          0.00    -10.47      0.00
   0.00000000   0.00000000   0.00001010          0.00      0.00      1.49


     bfgs converged in   6 scf cycles and   5 bfgs steps
     (criteria: energy <  1.0E-04, force <  1.0E-03)

     End of BFGS Geometry Optimization

     Final energy   =    -149.4591915661 Ry
Begin final coordinates

ATOMIC_POSITIONS (crystal)
Al       0.000000000   0.000000000  -0.000448744
Al       0.500000000   0.500000000  -0.000448747
Al       0.500000000   0.000000000   0.071687667
Al       0.000000000   0.500000000   0.071687667
Al       0.000000000   0.000000000   0.142845500
Al       0.500000000   0.500000000   0.142845513
Al       0.500000000   0.000000000   0.214297050
Al       0.000000000   0.500000000   0.214297050
Al       0.000000000   0.000000000   0.285457277
Al       0.500000000   0.500000000   0.285457273
Al       0.500000000   0.000000000   0.357589819
Al       0.000000000   0.500000000   0.357589819
End final coordinates



     Writing output data file Al_100_3_4.save

 %%%%%%%%%%%%%%%%%%%%%%%%%%%%%%%%%%%%%%%%%%%%%%%%%%%%%%%%%%%%%%%%%%%%%%%%%%%%%%
     Error in routine davcio (10):
     error while writing from file "./tmp/Al_100_3_4.wfc1"
 %%%%%%%%%%%%%%%%%%%%%%%%%%%%%%%%%%%%%%%%%%%%%%%%%%%%%%%%%%%%%%%%%%%%%%%%%%%%%%

     stopping ...
--------------------------------------------------------------------------
MPI_ABORT was invoked on rank 0 in communicator MPI_COMM_WORLD 
with errorcode 1.

NOTE: invoking MPI_ABORT causes Open MPI to kill all MPI processes.
You may or may not see output from other processes, depending on
exactly when Open MPI kills them.
--------------------------------------------------------------------------
