--------------------------------------------------------------------------
[[20236,1],0]: A high-performance Open MPI point-to-point messaging module
was unable to find any relevant network interfaces:

Module: OpenFabrics (openib)
  Host: ubuntu

Another transport will be used instead, although this may result in
lower performance.
--------------------------------------------------------------------------

     Program PWSCF v.5.1 starts on 29May2020 at 20:18:33 

     This program is part of the open-source Quantum ESPRESSO suite
     for quantum simulation of materials; please cite
         "P. Giannozzi et al., J. Phys.:Condens. Matter 21 395502 (2009);
          URL http://www.quantum-espresso.org", 
     in publications or presentations arising from this work. More details at
     http://www.quantum-espresso.org/quote

     Parallel version (MPI), running on     1 processors
     Reading input from Al_100_surf_slab_6.pw.in

     Current dimensions of program PWSCF are:
     Max number of different atomic species (ntypx) = 10
     Max number of k-points (npk) =  40000
     Max angular momentum in pseudopotentials (lmaxx) =  3

     Subspace diagonalization in iterative solution of the eigenvalue problem:
     a serial algorithm will be used

     Found symmetry operation: I + ( -0.5000 -0.5000  0.0000)
     This is a supercell, fractional translations are disabled

     G-vector sticks info
     --------------------
     sticks:   dense  smooth     PW     G-vecs:    dense   smooth      PW
     Sum         681     681    421               136265   136265   64459



     bravais-lattice index     =            6
     lattice parameter (alat)  =       7.6050  a.u.
     unit-cell volume          =    4398.4297 (a.u.)^3
     number of atoms/cell      =           24
     number of atomic types    =            1
     number of electrons       =        72.00
     number of Kohn-Sham states=           43
     kinetic-energy cutoff     =      80.0000  Ry
     charge density cutoff     =     150.0000  Ry
     convergence threshold     =      1.0E-06
     mixing beta               =       0.3000
     number of iterations used =            8  local-TF  mixing
     Exchange-correlation      =  SLA  PW   PBE  PBE ( 1  4  3  4 0)
     nstep                     =           50


     celldm(1)=   7.605000  celldm(2)=   0.000000  celldm(3)=  10.000000
     celldm(4)=   0.000000  celldm(5)=   0.000000  celldm(6)=   0.000000

     crystal axes: (cart. coord. in units of alat)
               a(1) = (   1.000000   0.000000   0.000000 )  
               a(2) = (   0.000000   1.000000   0.000000 )  
               a(3) = (   0.000000   0.000000  10.000000 )  

     reciprocal axes: (cart. coord. in units 2 pi/alat)
               b(1) = (  1.000000  0.000000  0.000000 )  
               b(2) = (  0.000000  1.000000  0.000000 )  
               b(3) = (  0.000000  0.000000  0.100000 )  


     PseudoPot. # 1 for Al read from file:
     ./Al.pbe-n-van.UPF
     MD5 check sum: b11ded24487aef5bc42d5c7a2e22a7b6
     Pseudo is Ultrasoft + core correction, Zval =  3.0
     Generated by new atomic code, or converted to UPF format
     Using radial grid of  893 points,  2 beta functions with: 
                l(1) =   0
                l(2) =   1
     Q(r) pseudized with  8 coefficients,  rinner =    0.900   0.900   0.900


     atomic species   valence    mass     pseudopotential
        Al             3.00    26.98000     Al( 1.00)

      8 Sym. Ops. (no inversion) found



   Cartesian axes

     site n.     atom                  positions (alat units)
         1           Al  tau(   1) = (   0.0000000   0.0000000   0.0000000  )
         2           Al  tau(   2) = (   0.5000000   0.5000000   0.0000000  )
         3           Al  tau(   3) = (   0.5000000   0.0000000   0.5000000  )
         4           Al  tau(   4) = (   0.0000000   0.5000000   0.5000000  )
         5           Al  tau(   5) = (   0.0000000   0.0000000   1.0000000  )
         6           Al  tau(   6) = (   0.5000000   0.5000000   1.0000000  )
         7           Al  tau(   7) = (   0.5000000   0.0000000   1.5000000  )
         8           Al  tau(   8) = (   0.0000000   0.5000000   1.5000000  )
         9           Al  tau(   9) = (   0.0000000   0.0000000   2.0000000  )
        10           Al  tau(  10) = (   0.5000000   0.5000000   2.0000000  )
        11           Al  tau(  11) = (   0.5000000   0.0000000   2.5000000  )
        12           Al  tau(  12) = (   0.0000000   0.5000000   2.5000000  )
        13           Al  tau(  13) = (   0.0000000   0.0000000   3.0000000  )
        14           Al  tau(  14) = (   0.5000000   0.5000000   3.0000000  )
        15           Al  tau(  15) = (   0.5000000   0.0000000   3.5000000  )
        16           Al  tau(  16) = (   0.0000000   0.5000000   3.5000000  )
        17           Al  tau(  17) = (   0.0000000   0.0000000   4.0000000  )
        18           Al  tau(  18) = (   0.5000000   0.5000000   4.0000000  )
        19           Al  tau(  19) = (   0.5000000   0.0000000   4.5000000  )
        20           Al  tau(  20) = (   0.0000000   0.5000000   4.5000000  )
        21           Al  tau(  21) = (   0.0000000   0.0000000   5.0000000  )
        22           Al  tau(  22) = (   0.5000000   0.5000000   5.0000000  )
        23           Al  tau(  23) = (   0.5000000   0.0000000   5.5000000  )
        24           Al  tau(  24) = (   0.0000000   0.5000000   5.5000000  )

     number of k points=    45  Marzari-Vanderbilt smearing, width (Ry)=  0.0250
                       cart. coord. in units 2pi/alat
        k(    1) = (   0.0000000   0.0000000   0.0000000), wk =   0.0078125
        k(    2) = (   0.0000000   0.0625000   0.0000000), wk =   0.0312500
        k(    3) = (   0.0000000   0.1250000   0.0000000), wk =   0.0312500
        k(    4) = (   0.0000000   0.1875000   0.0000000), wk =   0.0312500
        k(    5) = (   0.0000000   0.2500000   0.0000000), wk =   0.0312500
        k(    6) = (   0.0000000   0.3125000   0.0000000), wk =   0.0312500
        k(    7) = (   0.0000000   0.3750000   0.0000000), wk =   0.0312500
        k(    8) = (   0.0000000   0.4375000   0.0000000), wk =   0.0312500
        k(    9) = (   0.0000000  -0.5000000   0.0000000), wk =   0.0156250
        k(   10) = (   0.0625000   0.0625000   0.0000000), wk =   0.0312500
        k(   11) = (   0.0625000   0.1250000   0.0000000), wk =   0.0625000
        k(   12) = (   0.0625000   0.1875000   0.0000000), wk =   0.0625000
        k(   13) = (   0.0625000   0.2500000   0.0000000), wk =   0.0625000
        k(   14) = (   0.0625000   0.3125000   0.0000000), wk =   0.0625000
        k(   15) = (   0.0625000   0.3750000   0.0000000), wk =   0.0625000
        k(   16) = (   0.0625000   0.4375000   0.0000000), wk =   0.0625000
        k(   17) = (   0.0625000  -0.5000000   0.0000000), wk =   0.0312500
        k(   18) = (   0.1250000   0.1250000   0.0000000), wk =   0.0312500
        k(   19) = (   0.1250000   0.1875000   0.0000000), wk =   0.0625000
        k(   20) = (   0.1250000   0.2500000   0.0000000), wk =   0.0625000
        k(   21) = (   0.1250000   0.3125000   0.0000000), wk =   0.0625000
        k(   22) = (   0.1250000   0.3750000   0.0000000), wk =   0.0625000
        k(   23) = (   0.1250000   0.4375000   0.0000000), wk =   0.0625000
        k(   24) = (   0.1250000  -0.5000000   0.0000000), wk =   0.0312500
        k(   25) = (   0.1875000   0.1875000   0.0000000), wk =   0.0312500
        k(   26) = (   0.1875000   0.2500000   0.0000000), wk =   0.0625000
        k(   27) = (   0.1875000   0.3125000   0.0000000), wk =   0.0625000
        k(   28) = (   0.1875000   0.3750000   0.0000000), wk =   0.0625000
        k(   29) = (   0.1875000   0.4375000   0.0000000), wk =   0.0625000
        k(   30) = (   0.1875000  -0.5000000   0.0000000), wk =   0.0312500
        k(   31) = (   0.2500000   0.2500000   0.0000000), wk =   0.0312500
        k(   32) = (   0.2500000   0.3125000   0.0000000), wk =   0.0625000
        k(   33) = (   0.2500000   0.3750000   0.0000000), wk =   0.0625000
        k(   34) = (   0.2500000   0.4375000   0.0000000), wk =   0.0625000
        k(   35) = (   0.2500000  -0.5000000   0.0000000), wk =   0.0312500
        k(   36) = (   0.3125000   0.3125000   0.0000000), wk =   0.0312500
        k(   37) = (   0.3125000   0.3750000   0.0000000), wk =   0.0625000
        k(   38) = (   0.3125000   0.4375000   0.0000000), wk =   0.0625000
        k(   39) = (   0.3125000  -0.5000000   0.0000000), wk =   0.0312500
        k(   40) = (   0.3750000   0.3750000   0.0000000), wk =   0.0312500
        k(   41) = (   0.3750000   0.4375000   0.0000000), wk =   0.0625000
        k(   42) = (   0.3750000  -0.5000000   0.0000000), wk =   0.0312500
        k(   43) = (   0.4375000   0.4375000   0.0000000), wk =   0.0312500
        k(   44) = (   0.4375000  -0.5000000   0.0000000), wk =   0.0312500
        k(   45) = (  -0.5000000  -0.5000000   0.0000000), wk =   0.0078125

     Dense  grid:   136265 G-vectors     FFT dimensions: (  30,  30, 300)

     Largest allocated arrays     est. size (Mb)     dimensions
        Kohn-Sham Wavefunctions        34.98 Mb     (   53320,   43)
        NL pseudopotentials            78.11 Mb     (   53320,   96)
        Each V/rho on FFT grid          4.12 Mb     (  270000)
        Each G-vector array             1.04 Mb     (  136265)
        G-vector shells                 0.03 Mb     (    4041)
     Largest temporary arrays     est. size (Mb)     dimensions
        Auxiliary wavefunctions       139.94 Mb     (   53320,  172)
        Each subspace H/S matrix        0.45 Mb     (     172,  172)
        Each <psi_i|beta_j> matrix      0.06 Mb     (      96,   43)
        Arrays for rho mixing          32.96 Mb     (  270000,    8)

     Initial potential from superposition of free atoms

     starting charge   71.94083, renormalised to   72.00000

     negative rho (up, down):  5.062E-05 0.000E+00
     Starting wfc are   96 randomized atomic wfcs

     total cpu time spent up to now is      352.5 secs

     per-process dynamical memory:  1787.7 Mb

     Self-consistent Calculation

     iteration #  1     ecut=    80.00 Ry     beta=0.30
     Davidson diagonalization with overlap
     ethr =  1.00E-02,  avg # of iterations =  2.8

     total cpu time spent up to now is      926.3 secs

     total energy              =    -299.14186663 Ry
     Harris-Foulkes estimate   =    -299.19740678 Ry
     estimated scf accuracy    <       2.20986464 Ry

     iteration #  2     ecut=    80.00 Ry     beta=0.30
     Davidson diagonalization with overlap
     ethr =  3.07E-03,  avg # of iterations =  1.0

     total cpu time spent up to now is     1265.4 secs

     total energy              =    -298.97877028 Ry
     Harris-Foulkes estimate   =    -299.15892230 Ry
     estimated scf accuracy    <       1.58508857 Ry

     iteration #  3     ecut=    80.00 Ry     beta=0.30
     Davidson diagonalization with overlap
     ethr =  2.20E-03,  avg # of iterations =  2.0

     total cpu time spent up to now is     1615.8 secs

     total energy              =    -299.05473071 Ry
     Harris-Foulkes estimate   =    -299.07234137 Ry
     estimated scf accuracy    <       0.13794134 Ry

     iteration #  4     ecut=    80.00 Ry     beta=0.30
     Davidson diagonalization with overlap
     ethr =  1.92E-04,  avg # of iterations =  3.3

     total cpu time spent up to now is     2007.6 secs

     total energy              =    -299.06427501 Ry
     Harris-Foulkes estimate   =    -299.06561864 Ry
     estimated scf accuracy    <       0.02175464 Ry

     iteration #  5     ecut=    80.00 Ry     beta=0.30
     Davidson diagonalization with overlap
     ethr =  3.02E-05,  avg # of iterations =  3.7

     total cpu time spent up to now is     2380.4 secs

     total energy              =    -299.05961719 Ry
     Harris-Foulkes estimate   =    -299.06509475 Ry
     estimated scf accuracy    <       0.02253829 Ry

     iteration #  6     ecut=    80.00 Ry     beta=0.30
     Davidson diagonalization with overlap
     ethr =  3.02E-05,  avg # of iterations =  1.7

     total cpu time spent up to now is     2735.7 secs

     total energy              =    -299.05988589 Ry
     Harris-Foulkes estimate   =    -299.06085989 Ry
     estimated scf accuracy    <       0.03520287 Ry

     iteration #  7     ecut=    80.00 Ry     beta=0.30
     Davidson diagonalization with overlap
     ethr =  3.02E-05,  avg # of iterations =  1.0

     negative rho (up, down):  2.080E-04 0.000E+00

     total cpu time spent up to now is     3078.0 secs

     total energy              =    -299.05676077 Ry
     Harris-Foulkes estimate   =    -299.06002854 Ry
     estimated scf accuracy    <       0.03031335 Ry

     iteration #  8     ecut=    80.00 Ry     beta=0.30
     Davidson diagonalization with overlap
     ethr =  3.02E-05,  avg # of iterations =  2.2

     negative rho (up, down):  4.177E-03 0.000E+00

     total cpu time spent up to now is     3432.5 secs

     total energy              =    -299.05812397 Ry
     Harris-Foulkes estimate   =    -299.05802104 Ry
     estimated scf accuracy    <       0.00405137 Ry

     iteration #  9     ecut=    80.00 Ry     beta=0.30
     Davidson diagonalization with overlap
     ethr =  5.63E-06,  avg # of iterations =  4.5

     negative rho (up, down):  2.177E-02 0.000E+00

     total cpu time spent up to now is     3888.0 secs

     total energy              =    -299.05699252 Ry
     Harris-Foulkes estimate   =    -299.05867340 Ry
     estimated scf accuracy    <       0.02009100 Ry

     iteration # 10     ecut=    80.00 Ry     beta=0.30
     Davidson diagonalization with overlap
     ethr =  5.63E-06,  avg # of iterations =  2.9

     negative rho (up, down):  2.086E-02 0.000E+00

     total cpu time spent up to now is     4288.4 secs

     total energy              =    -299.05756923 Ry
     Harris-Foulkes estimate   =    -299.05776128 Ry
     estimated scf accuracy    <       0.00153848 Ry

     iteration # 11     ecut=    80.00 Ry     beta=0.30
     Davidson diagonalization with overlap
     ethr =  2.14E-06,  avg # of iterations =  1.0

     negative rho (up, down):  1.034E-02 0.000E+00

     total cpu time spent up to now is    10702.1 secs

     total energy              =    -299.05737890 Ry
     Harris-Foulkes estimate   =    -299.05759545 Ry
     estimated scf accuracy    <       0.00066168 Ry

     iteration # 12     ecut=    80.00 Ry     beta=0.30
     Davidson diagonalization with overlap
     ethr =  9.19E-07,  avg # of iterations =  2.6

     negative rho (up, down):  4.488E-03 0.000E+00

     total cpu time spent up to now is    11136.3 secs

     total energy              =    -299.05736982 Ry
     Harris-Foulkes estimate   =    -299.05750776 Ry
     estimated scf accuracy    <       0.00074574 Ry

     iteration # 13     ecut=    80.00 Ry     beta=0.30
     Davidson diagonalization with overlap
     ethr =  9.19E-07,  avg # of iterations =  2.0

     negative rho (up, down):  7.032E-04 0.000E+00

     total cpu time spent up to now is    11491.2 secs

     total energy              =    -299.05738445 Ry
     Harris-Foulkes estimate   =    -299.05740924 Ry
     estimated scf accuracy    <       0.00004343 Ry

     iteration # 14     ecut=    80.00 Ry     beta=0.30
     Davidson diagonalization with overlap
     ethr =  6.03E-08,  avg # of iterations =  3.2

     negative rho (up, down):  6.634E-04 0.000E+00

     total cpu time spent up to now is    11896.1 secs

     total energy              =    -299.05739199 Ry
     Harris-Foulkes estimate   =    -299.05739015 Ry
     estimated scf accuracy    <       0.00003204 Ry

     iteration # 15     ecut=    80.00 Ry     beta=0.30
     Davidson diagonalization with overlap
     ethr =  4.45E-08,  avg # of iterations =  1.0

     negative rho (up, down):  2.358E-04 0.000E+00

     total cpu time spent up to now is    12232.2 secs

     total energy              =    -299.05738792 Ry
     Harris-Foulkes estimate   =    -299.05739216 Ry
     estimated scf accuracy    <       0.00002499 Ry

     iteration # 16     ecut=    80.00 Ry     beta=0.30
     Davidson diagonalization with overlap
     ethr =  3.47E-08,  avg # of iterations =  2.0

     negative rho (up, down):  6.618E-06 0.000E+00

     total cpu time spent up to now is    12590.6 secs

     End of self-consistent calculation

          k = 0.0000 0.0000 0.0000 ( 53125 PWs)   bands (ev):

    -8.0537  -7.8690  -7.5697  -7.1556  -6.6248  -5.9807  -5.2304  -4.3808
    -3.4302  -2.3867  -1.2552   0.0380   0.2283   0.2283   0.3981   0.3981
     0.6441   0.6731   0.6731   1.0545   1.0545   1.5448   1.5448   1.5903
     1.5903   1.7666   1.7666   2.0504   2.0504   2.1429   2.1429   2.4363
     2.4363   2.5619   2.8433   2.8433   2.9077   2.9078   3.6069   3.6069
     3.6412   3.6412   3.8848

          k = 0.0000 0.0625 0.0000 ( 53127 PWs)   bands (ev):

    -8.0179  -7.8332  -7.5341  -7.1200  -6.5893  -5.9454  -5.1952  -4.3458
    -3.3954  -2.3522  -1.2210  -0.3439  -0.1707   0.0720   0.1094   0.2611
     0.4309   0.4970   0.6772   0.7059   0.9933   1.0873   1.5776   1.5902
     1.6279   1.8008   2.0855   2.1757   2.2230   2.2624   2.3972   2.5126
     2.5952   2.6870   2.8761   2.8769   3.0770   3.2360   3.4097   3.6740
     3.8116   3.9174   4.0455

          k = 0.0000 0.1250 0.0000 ( 53115 PWs)   bands (ev):

    -7.9106  -7.7260  -7.4271  -7.0133  -6.4830  -5.8395  -5.0898  -4.2410
    -3.2913  -2.2487  -1.2482  -1.1184  -1.0725  -0.7883  -0.3951   0.1084
     0.1741   0.3595   0.5294   0.7184   0.7765   0.8044   1.1858   1.4224
     1.6761   1.7264   1.9042   2.1021   2.2742   2.3172   2.5651   2.6948
     2.9745   3.1640   3.2415   3.3098   3.4823   3.6802   3.7724   3.8052
     4.0143   4.0704   4.1842

          k = 0.0000 0.1875 0.0000 ( 53146 PWs)   bands (ev):

    -7.7320  -7.5476  -7.2490  -6.8357  -6.3060  -5.6631  -4.9143  -4.0665
    -3.1178  -2.1470  -2.0765  -1.9696  -1.6826  -1.2856  -0.9477  -0.7770
    -0.1601   0.3439   0.5236   0.5565   0.6935   0.9420   0.9685   1.3499
     1.3590   1.8402   1.8965   2.0336   2.2732   2.3561   2.4383   2.8596
     2.8808   3.1386   3.3297   3.3644   3.9208   3.9364   4.1737   4.4195
     4.5123   4.5774   4.6993

          k = 0.0000 0.2500 0.0000 ( 53102 PWs)   bands (ev):

    -7.4822  -7.2981  -7.0000  -6.5873  -6.0585  -5.4167  -4.6690  -3.8225
    -2.9979  -2.8754  -2.8192  -2.5302  -2.1301  -1.8358  -1.6175  -0.9956
    -0.7091  -0.2720   0.5446   0.5810   0.7533   0.9232   1.1736   1.1982
     1.4463   1.5797   2.0700   2.1170   2.3089   2.3460   2.6681   2.8086
     3.0732   3.0873   3.3683   3.5663   3.6243   4.1660   4.1772   4.3893
     4.7391   4.9585   5.0045

          k = 0.0000 0.3125 0.0000 ( 53088 PWs)   bands (ev):

    -7.1617  -6.9780  -6.6805  -6.2687  -5.7409  -5.1004  -4.3542  -3.7902
    -3.6105  -3.5094  -3.3197  -2.9172  -2.5643  -2.4013  -1.7754  -1.5271
    -1.0466  -0.4032  -0.2226   0.6955   0.8847   1.0487   1.2187   1.4710
     1.4937   1.6862   1.8751   2.3654   2.4303   2.4890   2.9635   2.9914
     2.9961   3.3692   3.3718   3.6637   3.8570   4.1387   4.2026   4.3726
     4.4332   4.4611   4.6475

          k = 0.0000 0.3750 0.0000 ( 53154 PWs)   bands (ev):

    -6.7710  -6.5877  -6.2909  -5.8801  -5.3537  -4.7147  -4.5197  -4.3391
    -4.0467  -3.9705  -3.6420  -3.1278  -3.1234  -2.4941  -2.1851  -1.7612
    -1.1508  -0.9319  -0.0306  -0.0057   1.0056   1.2535   1.4099   1.5798
     1.8339   1.8549   2.0749   2.2363   2.7266   2.7377   3.0833   3.3246
     3.3442   3.4953   3.5125   3.6824   3.6917   3.7316   3.9364   3.9574
     4.0246   4.2494   4.3387

          k = 0.0000 0.4375 0.0000 ( 53154 PWs)   bands (ev):

    -6.3106  -6.1278  -5.8319  -5.4224  -5.1839  -5.0025  -4.8974  -4.7088
    -4.3022  -4.2604  -3.7812  -3.5184  -3.1489  -2.6783  -2.4125  -1.7386
    -1.5790  -0.7079  -0.6473   0.3730   0.4076   1.4713   1.6851   1.8368
     2.0068   2.2619   2.2818   2.6633   2.6700   2.8881   3.0581   3.1535
     3.2947   3.3331   3.3565   3.5040   3.7144   3.7514   3.7745   3.9251
     4.1728   4.2044   4.4514

          k = 0.0000-0.5000 0.0000 ( 53122 PWs)   bands (ev):

    -5.7813  -5.7812  -5.5991  -5.5991  -5.3043  -5.3042  -4.8961  -4.8961
    -4.3730  -4.3729  -3.7382  -3.7381  -2.9987  -2.9987  -2.1617  -2.1616
    -1.2256  -1.2255  -0.1994  -0.1993   0.9096   0.9097   2.1719   2.1720
     2.3296   2.3296   2.4995   2.4995   2.7534   2.7535   2.7745   2.7746
     3.1559   3.1560   3.6460   3.6461   3.7210   3.7210   3.9640   3.9641
     4.2438   4.2438   4.2647

          k = 0.0625 0.0625 0.0000 ( 53111 PWs)   bands (ev):

    -7.9821  -7.7975  -7.4984  -7.0844  -6.5539  -5.9101  -5.1601  -4.3109
    -3.3607  -2.3177  -1.1868  -0.3105  -0.3105  -0.1374  -0.1374   0.1060
     0.1425   0.1425   0.5298   0.5298   0.7103   1.0255   1.0255   1.6320
     1.6320   2.2568   2.2568   2.3353   2.3353   2.4363   2.4364   2.6283
     2.6993   2.6993   3.0778   3.0778   3.1559   3.1559   3.6273   3.6273
     3.9495   4.0848   4.0849

          k = 0.0625 0.1250 0.0000 ( 53106 PWs)   bands (ev):

    -7.8749  -7.6903  -7.3915  -6.9778  -6.4476  -5.8042  -5.0547  -4.2061
    -3.2565  -2.2143  -1.2143  -1.0843  -1.0386  -0.7546  -0.3620  -0.2101
    -0.0378   0.1411   0.2080   0.2420   0.6293   0.7465   0.8096   1.1360
     1.4506   1.7623   2.2636   2.3610   2.4484   2.5245   2.7273   2.8254
     3.0457   3.2383   3.3450   3.4027   3.5072   3.7403   3.7931   4.0430
     4.0448   4.2226   4.2918

          k = 0.0625 0.1875 0.0000 ( 53129 PWs)   bands (ev):

    -7.6963  -7.5119  -7.2134  -6.8002  -6.2706  -5.6279  -4.8793  -4.0316
    -3.0832  -2.1127  -2.0421  -1.9354  -1.6486  -1.2518  -0.9136  -0.7435
    -0.1285  -0.0428   0.1290   0.3777   0.4088   0.5774   0.8122   0.9750
     1.2566   1.4566   1.9126   2.2976   2.5206   2.6146   2.7127   2.8904
     2.9251   3.4148   3.4396   3.4418   3.9183   4.1974   4.3043   4.4253
     4.5253   4.5516   4.7161

          k = 0.0625 0.2500 0.0000 ( 53141 PWs)   bands (ev):

    -7.4466  -7.2625  -6.9645  -6.5519  -6.0231  -5.3815  -4.6340  -3.7877
    -2.9634  -2.8408  -2.7848  -2.4958  -2.0959  -1.8015  -1.5835  -0.9620
    -0.6752  -0.2399   0.1899   0.3625   0.5488   0.6145   0.6722   1.0219
     1.2065   1.5155   1.5433   2.1432   2.4670   2.7633   2.8518   2.9014
     3.1119   3.3045   3.6154   3.6632   3.7183   4.1541   4.3393   4.4683
     4.5294   4.7190   4.7514

          k = 0.0625 0.3125 0.0000 ( 53123 PWs)   bands (ev):

    -7.1262  -6.9425  -6.6450  -6.2333  -5.7056  -5.0653  -4.3193  -3.7555
    -3.5759  -3.4747  -3.2851  -2.8827  -2.5298  -2.3670  -1.7413  -1.4929
    -1.0130  -0.3694  -0.1906   0.4897   0.6395   0.7466   0.9176   0.9390
     1.3510   1.5038   1.7527   1.8385   2.4392   2.7779   3.0326   3.1465
     3.3395   3.3552   3.5770   3.7800   3.8278   3.9457   3.9606   4.1219
     4.1573   4.4717   4.5069

          k = 0.0625 0.3750 0.0000 ( 53123 PWs)   bands (ev):

    -6.7355  -6.5523  -6.2556  -5.8449  -5.3185  -4.6797  -4.4848  -4.3042
    -4.0119  -3.9356  -3.6073  -3.0932  -3.0888  -2.4597  -2.1508  -1.7270
    -1.1168  -0.8983   0.0028   0.0260   0.8499   1.0217   1.0264   1.2847
     1.3474   1.7081   1.8664   2.1460   2.2019   2.8062   2.9631   3.1536
     3.2126   3.4348   3.5040   3.6526   3.6746   3.8112   3.8213   3.9371
     3.9587   4.3176   4.3268

          k = 0.0625 0.4375 0.0000 ( 53148 PWs)   bands (ev):

    -6.2752  -6.0925  -5.7967  -5.3872  -5.1488  -4.9674  -4.8624  -4.6738
    -4.2674  -4.2255  -3.7465  -3.4837  -3.1144  -2.6438  -2.3781  -1.7044
    -1.5450  -0.6741  -0.6139   0.4038   0.4402   1.2848   1.3844   1.5981
     1.7064   1.7546   2.1377   2.2919   2.3676   2.5341   2.6265   2.7789
     2.8099   3.1959   3.2195   3.3593   3.6896   3.8780   3.9512   4.0759
     4.1468   4.2929   4.3622

          k = 0.0625-0.5000 0.0000 ( 53190 PWs)   bands (ev):

    -5.7460  -5.7460  -5.5640  -5.5639  -5.2691  -5.2691  -4.8611  -4.8610
    -4.3381  -4.3380  -3.7034  -3.7034  -2.9642  -2.9641  -2.1274  -2.1273
    -1.1916  -1.1916  -0.1663  -0.1662   0.9385   0.9386   1.7612   1.7613
     1.9746   1.9747   2.2415   2.2416   2.2559   2.2559   2.6322   2.6322
     2.7883   2.7884   3.1302   3.1302   3.7347   3.7347   4.2201   4.2202
     4.4400   4.4401   4.5391

          k = 0.1250 0.1250 0.0000 ( 53105 PWs)   bands (ev):

    -7.7677  -7.5833  -7.2846  -6.8712  -6.3414  -5.6984  -4.9494  -4.1014
    -3.1525  -2.1110  -1.1126  -1.1126  -0.9819  -0.9373  -0.9373  -0.6538
    -0.6538  -0.2618  -0.2618   0.2390   0.2390   0.3098   0.8581   0.8581
     0.9088   1.5902   1.5903   2.3853   2.3853   2.8238   3.2652   3.2652
     3.4386   3.4387   3.6232   3.6232   3.8532   3.8532   4.1313   4.3172
     4.3172   4.3758   4.3758

          k = 0.1250 0.1875 0.0000 ( 53090 PWs)   bands (ev):

    -7.5892  -7.4050  -7.1067  -6.6937  -6.1645  -5.5222  -4.7741  -3.9270
    -2.9792  -2.0100  -1.9390  -1.8329  -1.5465  -1.1506  -0.9431  -0.8115
    -0.7695  -0.6426  -0.4859  -0.0943  -0.0333   0.4223   0.4789   0.6816
     1.0616   1.0741   1.5257   1.7527   2.4155   2.5683   2.9783   3.3520
     3.4894   3.6185   3.7553   4.1349   4.2087   4.3881   4.4364   4.4857
     4.6037   4.6618   4.6914

          k = 0.1250 0.2500 0.0000 ( 53137 PWs)   bands (ev):

    -7.3397  -7.1558  -6.8579  -6.4456  -5.9172  -5.2760  -4.5290  -3.6833
    -2.8599  -2.7371  -2.6815  -2.3927  -1.9933  -1.6986  -1.4817  -0.8627
    -0.7062  -0.5734  -0.5328  -0.2498  -0.1512   0.1604   0.5759   0.7147
     0.7782   1.2758   1.3053   1.6147   1.9831   2.6102   2.7897   3.1392
     3.6301   3.6927   3.6980   3.7072   3.8216   4.0142   4.1275   4.3409
     4.4009   4.6182   4.6843

          k = 0.1250 0.3125 0.0000 ( 53145 PWs)   bands (ev):

    -7.0195  -6.8360  -6.5387  -6.1273  -5.5999  -4.9600  -4.2146  -3.6514
    -3.4719  -3.3706  -3.1813  -2.7792  -2.4264  -2.2641  -1.6392  -1.3903
    -0.9131  -0.4036  -0.2683  -0.2292  -0.1121   0.0784   0.4317   0.8717
     0.9698   1.0151   1.5744   1.6019   1.8560   2.2887   2.7746   2.9173
     2.9801   3.1170   3.2654   3.6068   3.6551   3.9121   4.0502   4.1553
     4.3552   4.4186   4.7049

          k = 0.1250 0.3750 0.0000 ( 53147 PWs)   bands (ev):

    -6.6291  -6.4460  -6.1495  -5.7391  -5.2131  -4.5748  -4.3801  -4.1996
    -3.9075  -3.8312  -3.5033  -2.9894  -2.9852  -2.3566  -2.0477  -1.6249
    -1.0148  -0.7985  -0.0334   0.0781   0.1025   0.1848   0.4184   0.8430
     1.1718   1.3339   1.3702   1.9373   1.9618   2.1284   2.2612   2.2966
     2.5748   2.6484   2.9639   3.4520   3.4602   3.4996   3.9324   4.0673
     4.0749   4.3745   4.5358

          k = 0.1250 0.4375 0.0000 ( 53119 PWs)   bands (ev):

    -6.1692  -5.9866  -5.6910  -5.2818  -5.0436  -4.8624  -4.7573  -4.5689
    -4.1628  -4.1209  -3.6423  -3.3796  -3.0106  -2.5404  -2.2751  -1.6019
    -1.4430  -0.5732  -0.5147   0.3889   0.4960   0.5350   0.5739   0.9054
     1.2690   1.4311   1.6348   1.6701   1.7663   1.8766   1.9466   2.3265
     2.3753   2.3993   2.8339   2.8694   3.1163   3.4304   3.4428   3.9148
     4.1352   4.3490   4.7704

          k = 0.1250-0.5000 0.0000 ( 53126 PWs)   bands (ev):

    -5.6404  -5.6403  -5.4584  -5.4584  -5.1638  -5.1638  -4.7560  -4.7560
    -4.2334  -4.2334  -3.5992  -3.5992  -2.8605  -2.8605  -2.0245  -2.0244
    -1.0901  -1.0900  -0.0685  -0.0684   0.9005   0.9005   0.9455   0.9455
     1.1978   1.1978   1.3827   1.3827   1.7680   1.7681   2.2496   2.2496
     2.3590   2.3591   2.8214   2.8215   2.9402   2.9403   3.5886   3.5886
     4.3954   4.3955   4.7403

          k = 0.1875 0.1875 0.0000 ( 53109 PWs)   bands (ev):

    -7.4109  -7.2269  -6.9289  -6.5165  -5.9878  -5.3463  -4.5990  -3.7529
    -2.8062  -1.8391  -1.8391  -1.7673  -1.6625  -1.6625  -1.3767  -1.3767
    -0.9816  -0.9816  -0.6415  -0.4771  -0.4771   0.1489   0.1489   0.6470
     0.8879   0.8879   1.2391   1.6909   1.6909   2.5989   2.5989   3.0721
     3.5928   3.5928   3.6555   3.6562   3.9664   4.3534   4.5633   4.6128
     4.6130   4.7934   4.8574

          k = 0.1875 0.2500 0.0000 ( 53097 PWs)   bands (ev):

    -7.1617  -6.9780  -6.6805  -6.2687  -5.7409  -5.1004  -4.3542  -3.5095
    -2.6876  -2.5644  -2.5095  -2.2213  -1.8230  -1.6000  -1.5274  -1.4253
    -1.3116  -1.1395  -0.7450  -0.6986  -0.4042  -0.2234   0.0232   0.4185
     0.8711   0.8799   1.1161   1.4696   1.7694   1.9395   2.6615   2.7355
     2.8721   2.8876   3.1588   3.4888   3.5497   3.7507   3.9527   4.0512
     4.6314   4.7861   4.7943

          k = 0.1875 0.3125 0.0000 ( 53134 PWs)   bands (ev):

    -6.8419  -6.6586  -6.3617  -5.9507  -5.4240  -4.7848  -4.0402  -3.4780
    -3.2987  -3.1972  -3.0086  -2.6071  -2.2542  -2.0930  -1.4709  -1.2932
    -1.2198  -1.1187  -0.8336  -0.7548  -0.4206  -0.1007  -0.0099   0.1872
     0.7018   1.0214   1.1679   1.4134   1.7635   1.9560   2.0292   2.1252
     2.2250   2.4044   2.7948   3.1196   3.1362   3.2922   3.7515   3.9010
     4.1328   4.3526   4.6136

          k = 0.1875 0.3750 0.0000 ( 53123 PWs)   bands (ev):

    -6.4520  -6.2691  -5.9730  -5.5630  -5.0376  -4.4000  -4.2058  -4.0255
    -3.7338  -3.6573  -3.3301  -2.8165  -2.8127  -2.1853  -1.8762  -1.4561
    -0.9206  -0.8455  -0.7451  -0.6491  -0.4372  -0.0807   0.2651   0.3383
     0.4612   1.0695   1.1844   1.3278   1.4321   1.6174   1.7094   1.7882
     2.0850   2.1411   2.4031   2.6003   2.6221   3.2113   3.4471   3.7601
     3.9037   4.1221   4.1832

          k = 0.1875 0.4375 0.0000 ( 53144 PWs)   bands (ev):

    -5.9926  -5.8103  -5.5150  -5.1062  -4.8684  -4.6874  -4.5824  -4.3943
    -3.9886  -3.9467  -3.4688  -3.2063  -2.8381  -2.3682  -2.1038  -1.4315
    -1.2743  -0.4805  -0.4072  -0.3858  -0.2688  -0.0264   0.4007   0.5915
     0.6180   0.7051   0.8837   0.8949   1.0776   1.4645   1.5001   1.8030
     1.9396   2.0390   2.2149   2.5022   2.6312   3.0211   3.0666   3.2926
     3.6231   3.9606   4.1022

          k = 0.1875-0.5000 0.0000 ( 53118 PWs)   bands (ev):

    -5.4645  -5.4644  -5.2827  -5.2827  -4.9884  -4.9884  -4.5812  -4.5811
    -4.0592  -4.0591  -3.4257  -3.4257  -2.6881  -2.6880  -1.8535  -1.8534
    -0.9223  -0.9222   0.0064   0.0065   0.0983   0.0983   0.1969   0.1970
     0.5298   0.5298   0.8966   0.8966   1.2369   1.2370   1.3961   1.3962
     2.0078   2.0079   2.4799   2.4800   2.7537   2.7538   3.0364   3.0364
     3.5556   3.5556   4.4381

          k = 0.2500 0.2500 0.0000 ( 53157 PWs)   bands (ev):

    -6.9129  -6.7295  -6.4325  -6.0213  -5.4943  -4.8548  -4.1099  -3.2665
    -2.4469  -2.4469  -2.3231  -2.2693  -2.2693  -1.9819  -1.9819  -1.5845
    -1.5845  -1.2882  -1.0769  -1.0769  -0.4467  -0.4467  -0.1685   0.2935
     0.2936   1.1003   1.1019   1.1020   1.6973   1.8961   2.0165   2.0165
     2.0655   2.3451   2.7358   3.0218   3.0219   3.2335   3.6886   3.8429
     4.1087   4.1087   4.5561

          k = 0.2500 0.3125 0.0000 ( 53162 PWs)   bands (ev):

    -6.5937  -6.4106  -6.1142  -5.7038  -5.1780  -4.5398  -3.7964  -3.2357
    -3.0567  -2.9548  -2.7672  -2.3671  -2.1378  -2.0136  -1.9623  -1.8532
    -1.6749  -1.2781  -1.2370  -0.9819  -0.7540  -0.5100  -0.1130   0.1300
     0.3370   0.5909   1.0576   1.2397   1.3082   1.4195   1.4857   1.5858
     1.9588   2.0121   2.2119   2.3733   2.4782   3.0902   3.2371   3.4494
     3.7823   3.9978   4.3232

          k = 0.2500 0.3750 0.0000 ( 53145 PWs)   bands (ev):

    -6.2044  -6.0218  -5.7261  -5.3168  -4.7923  -4.1557  -3.9621  -3.7821
    -3.4909  -3.4142  -3.0880  -2.5750  -2.5720  -1.9474  -1.7610  -1.6368
    -1.5856  -1.2991  -1.2277  -0.8849  -0.6109  -0.4711  -0.2852   0.2412
     0.3999   0.4198   0.5531   0.6892   0.8873   0.9561   1.2751   1.5661
     1.7465   1.7713   1.8439   2.3068   2.4416   2.6640   2.6864   3.1072
     3.6867   3.9183   3.9213

          k = 0.2500 0.4375 0.0000 ( 53163 PWs)   bands (ev):

    -5.7458  -5.5637  -5.2689  -4.8608  -4.6236  -4.4428  -4.3379  -4.1502
    -3.7453  -3.7032  -3.2264  -2.9642  -2.5971  -2.1279  -1.8655  -1.3185
    -1.1947  -1.1422  -1.0543  -0.8344  -0.4741  -0.2552  -0.1686  -0.0677
    -0.0620   0.0673   0.2701   0.6393   0.6784   0.9261   0.9688   1.1402
     1.4001   1.7536   2.0064   2.2149   2.2373   2.5019   2.7726   3.0602
     3.3060   3.3796   3.7903

          k = 0.2500-0.5000 0.0000 ( 53124 PWs)   bands (ev):

    -5.2186  -5.2185  -5.0371  -5.0370  -4.7433  -4.7432  -4.3367  -4.3366
    -3.8156  -3.8155  -3.1833  -3.1833  -2.4472  -2.4472  -1.6156  -1.6155
    -0.8089  -0.8089  -0.7208  -0.7208  -0.5996  -0.5996  -0.3528  -0.3528
     0.0739   0.0739   0.3679   0.3679   0.5707   0.5707   1.1769   1.1770
     1.4706   1.4706   1.8943   1.8944   2.7023   2.7024   2.7392   2.7392
     3.2960   3.2960   3.6467

          k = 0.3125 0.3125 0.0000 ( 53201 PWs)   bands (ev):

    -6.2751  -6.0924  -5.7966  -5.3871  -4.8623  -4.2254  -3.4836  -2.9248
    -2.9248  -2.7464  -2.7464  -2.6440  -2.4578  -2.4578  -2.0588  -2.0588
    -1.7054  -1.5488  -1.5488  -0.9159  -0.9159  -0.6789  -0.1762  -0.1762
     0.3354   0.3536   0.6236   0.6365   0.6366   0.8231   1.2112   1.5552
     1.5552   1.6814   1.7786   2.2413   2.3779   2.5653   2.5654   3.0445
     3.6590   3.6590   3.8561

          k = 0.3125 0.3750 0.0000 ( 53199 PWs)   bands (ev):

    -5.8867  -5.7045  -5.4094  -5.0009  -4.4775  -3.8423  -3.6494  -3.4699
    -3.1794  -3.1025  -2.7780  -2.5455  -2.3695  -2.2654  -2.2623  -2.0809
    -1.6825  -1.6436  -1.3312  -1.1570  -0.9129  -0.5178  -0.3872  -0.3025
    -0.1929  -0.0676   0.1385   0.1913   0.5088   0.8342   0.8381   1.0105
     1.0236   1.6246   1.8139   1.9809   2.0815   2.3740   2.6405   2.8436
     3.0608   3.1792   3.9351

          k = 0.3125 0.4375 0.0000 ( 53184 PWs)   bands (ev):

    -5.4291  -5.2474  -4.9532  -4.5460  -4.3093  -4.1290  -4.0241  -3.8370
    -3.4331  -3.3909  -2.9157  -2.6538  -2.2894  -2.0988  -1.9229  -1.8208
    -1.6354  -1.5671  -1.2206  -1.0082  -0.9227  -0.8023  -0.8001  -0.6274
    -0.5509  -0.1249  -0.0924   0.1644   0.2161   0.3735   0.6248   0.9804
     1.2323   1.2700   1.4425   1.6992   2.3338   2.3601   2.5084   2.5405
     3.0990   3.3629   3.4551

          k = 0.3125-0.5000 0.0000 ( 53132 PWs)   bands (ev):

    -4.9030  -4.9030  -4.7219  -4.7219  -4.4287  -4.4287  -4.0230  -4.0230
    -3.5031  -3.5031  -2.8725  -2.8725  -2.1394  -2.1393  -1.5869  -1.5868
    -1.4100  -1.4100  -1.3254  -1.3253  -1.1024  -1.1023  -0.7391  -0.7390
    -0.3405  -0.3405  -0.1990  -0.1989   0.4141   0.4141   0.6567   0.6567
     1.1377   1.1377   1.7397   1.7397   1.9769   1.9769   2.7987   2.7987
     3.1197   3.1198   3.5273

          k = 0.3750 0.3750 0.0000 ( 53236 PWs)   bands (ev):

    -5.4994  -5.3176  -5.0232  -4.6158  -4.0937  -3.4602  -3.2682  -3.2682
    -3.0894  -3.0894  -2.8000  -2.8000  -2.7227  -2.3998  -2.3998  -1.8893
    -1.8881  -1.8880  -1.2535  -1.2534  -1.0749  -0.9901  -0.8671  -0.6172
    -0.5147  -0.5146  -0.1916   0.0964   0.3012   0.3013   0.3074   0.9145
     1.2030   1.2226   1.2226   1.6338   2.2357   2.2357   2.4434   2.4741
     3.0332   3.3327   3.3327

          k = 0.3750 0.4375 0.0000 ( 53180 PWs)   bands (ev):

    -5.0430  -4.8617  -4.5682  -4.1621  -3.9263  -3.7464  -3.6417  -3.4554
    -3.0531  -3.0105  -2.8190  -2.6425  -2.5362  -2.3532  -2.2766  -1.9538
    -1.9158  -1.7217  -1.5446  -1.4611  -1.4275  -1.2371  -1.1826  -0.8721
    -0.7899  -0.4774  -0.3390  -0.3329  -0.0771   0.2811   0.5216   0.5687
     0.7575   1.0056   1.5468   1.6059   1.7170   1.8458   2.5792   2.6672
     2.7990   2.9888   3.3954

          k = 0.3750-0.5000 0.0000 ( 53234 PWs)   bands (ev):

    -4.5183  -4.5183  -4.3377  -4.3376  -4.0453  -4.0452  -3.6408  -3.6407
    -3.1226  -3.1225  -2.4953  -2.4952  -2.3027  -2.3027  -2.1264  -2.1264
    -1.8384  -1.8383  -1.7713  -1.7712  -1.4233  -1.4233  -1.0015  -1.0014
    -0.8345  -0.8344  -0.2941  -0.2940   0.0131   0.0131   0.4246   0.4246
     1.0311   1.0311   1.2437   1.2437   2.1345   2.1346   2.1628   2.1629
     3.1671   3.1672   3.3996

          k = 0.4375 0.4375 0.0000 ( 53278 PWs)   bands (ev):

    -4.5880  -4.4073  -4.1148  -3.7100  -3.4750  -3.4750  -3.2959  -3.2959
    -3.1916  -3.0060  -3.0060  -2.6051  -2.6051  -2.5640  -2.3708  -2.1944
    -2.0924  -2.0924  -1.9062  -1.8394  -1.4911  -1.4569  -1.4569  -1.0679
    -0.9037  -0.7187  -0.7187  -0.3614  -0.0547   0.0991   0.0991   0.3577
     0.9639   1.0221   1.0221   1.1773   2.0368   2.0368   2.0680   2.0969
     3.1016   3.1356   3.1357

          k = 0.4375-0.5000 0.0000 ( 53318 PWs)   bands (ev):

    -4.0651  -4.0650  -3.8850  -3.8850  -3.5937  -3.5936  -3.1910  -3.1909
    -2.9562  -2.9561  -2.7795  -2.7794  -2.6735  -2.6734  -2.4899  -2.4898
    -2.0899  -2.0899  -2.0523  -2.0522  -1.5633  -1.5632  -1.3179  -1.3178
    -0.9265  -0.9264  -0.4752  -0.4751  -0.2118  -0.2117   0.4336   0.4336
     0.6240   0.6240   1.4127   1.4128   1.5845   1.5846   2.4465   2.4465
     2.6675   2.6676   3.5421

          k =-0.5000-0.5000 0.0000 ( 53320 PWs)   bands (ev):

    -3.5441  -3.5441  -3.5441  -3.5441  -3.3650  -3.3649  -3.3649  -3.3649
    -3.0749  -3.0748  -3.0748  -3.0748  -2.6737  -2.6737  -2.6737  -2.6736
    -2.1607  -2.1606  -2.1606  -2.1606  -1.5249  -1.5248  -1.5248  -1.5248
    -0.7869  -0.7869  -0.7869  -0.7868   0.0315   0.0316   0.0316   0.0316
     0.9550   0.9551   0.9551   0.9551   1.9703   1.9703   1.9703   1.9704
     3.0697   3.0698   3.0698

     the Fermi energy is     3.1389 ev

!    total energy              =    -299.05738867 Ry
     Harris-Foulkes estimate   =    -299.05738953 Ry
     estimated scf accuracy    <       0.00000095 Ry

     The total energy is the sum of the following terms:

     one-electron contribution =   -2211.59213513 Ry
     hartree contribution      =    1128.88355739 Ry
     xc contribution           =    -240.42384459 Ry
     ewald contribution        =    1024.07462694 Ry
     smearing contrib. (-TS)   =       0.00040672 Ry

     convergence has been achieved in  16 iterations

     Forces acting on atoms (Ry/au):


     negative rho (up, down):  6.618E-06 0.000E+00
     atom    1 type  1   force =     0.00000000    0.00000000   -0.00325865
     atom    2 type  1   force =     0.00000000    0.00000000   -0.00326242
     atom    3 type  1   force =     0.00000000    0.00000000    0.00177150
     atom    4 type  1   force =     0.00000000    0.00000000    0.00177150
     atom    5 type  1   force =     0.00000000    0.00000000    0.00061024
     atom    6 type  1   force =     0.00000000    0.00000000    0.00062269
     atom    7 type  1   force =     0.00000000    0.00000000    0.00088985
     atom    8 type  1   force =     0.00000000    0.00000000    0.00088985
     atom    9 type  1   force =     0.00000000    0.00000000   -0.00013018
     atom   10 type  1   force =     0.00000000    0.00000000   -0.00012955
     atom   11 type  1   force =     0.00000000    0.00000000   -0.00022535
     atom   12 type  1   force =     0.00000000    0.00000000   -0.00022535
     atom   13 type  1   force =     0.00000000    0.00000000    0.00022587
     atom   14 type  1   force =     0.00000000    0.00000000    0.00021988
     atom   15 type  1   force =     0.00000000    0.00000000    0.00013520
     atom   16 type  1   force =     0.00000000    0.00000000    0.00013520
     atom   17 type  1   force =     0.00000000    0.00000000   -0.00089215
     atom   18 type  1   force =     0.00000000    0.00000000   -0.00089879
     atom   19 type  1   force =     0.00000000    0.00000000   -0.00061218
     atom   20 type  1   force =     0.00000000    0.00000000   -0.00061218
     atom   21 type  1   force =     0.00000000    0.00000000   -0.00176616
     atom   22 type  1   force =     0.00000000    0.00000000   -0.00177391
     atom   23 type  1   force =     0.00000000    0.00000000    0.00325753
     atom   24 type  1   force =     0.00000000    0.00000000    0.00325753

     Total force =     0.007746     Total SCF correction =     0.001220
     SCF correction compared to forces is large: reduce conv_thr to get better values


     entering subroutine stress ...


     negative rho (up, down):  6.618E-06 0.000E+00
          total   stress  (Ry/bohr**3)                   (kbar)     P=   -4.46
  -0.00005565   0.00000000   0.00000000         -8.19      0.00      0.00
   0.00000000  -0.00005565   0.00000000          0.00     -8.19      0.00
   0.00000000   0.00000000   0.00002037          0.00      0.00      3.00


     BFGS Geometry Optimization

     number of scf cycles    =   1
     number of bfgs steps    =   0

     energy   new            =    -299.0573886703 Ry

     new trust radius        =       0.0032624246 bohr
     new conv_thr            =       0.0000010000 Ry


ATOMIC_POSITIONS (crystal)
Al       0.000000000   0.000000000  -0.000042849
Al       0.500000000   0.500000000  -0.000042898
Al       0.500000000   0.000000000   0.050023294
Al       0.000000000   0.500000000   0.050023294
Al       0.000000000   0.000000000   0.100008024
Al       0.500000000   0.500000000   0.100008188
Al       0.500000000   0.000000000   0.150011701
Al       0.000000000   0.500000000   0.150011701
Al       0.000000000   0.000000000   0.199998288
Al       0.500000000   0.500000000   0.199998297
Al       0.500000000   0.000000000   0.249997037
Al       0.000000000   0.500000000   0.249997037
Al       0.000000000   0.000000000   0.300002970
Al       0.500000000   0.500000000   0.300002891
Al       0.500000000   0.000000000   0.350001778
Al       0.000000000   0.500000000   0.350001778
Al       0.000000000   0.000000000   0.399988269
Al       0.500000000   0.500000000   0.399988182
Al       0.500000000   0.000000000   0.449991950
Al       0.000000000   0.500000000   0.449991950
Al       0.000000000   0.000000000   0.499976776
Al       0.500000000   0.500000000   0.499976674
Al       0.500000000   0.000000000   0.550042834
Al       0.000000000   0.500000000   0.550042834



     Writing output data file Al_100_6_4.save
     NEW-OLD atomic charge density approx. for the potential

     negative rho (up, down):  6.484E-06 0.000E+00

     total cpu time spent up to now is    12804.7 secs

     per-process dynamical memory:  1806.7 Mb

     Self-consistent Calculation

     iteration #  1     ecut=    80.00 Ry     beta=0.30
     Davidson diagonalization with overlap
     ethr =  1.00E-06,  avg # of iterations =  2.0

     Threshold (ethr) on eigenvalues was too large:
     Diagonalizing with lowered threshold

     Davidson diagonalization with overlap
     ethr =  5.87E-08,  avg # of iterations =  2.9

     negative rho (up, down):  8.730E-06 0.000E+00

     total cpu time spent up to now is    13576.6 secs

     total energy              =    -299.05745003 Ry
     Harris-Foulkes estimate   =    -299.05745292 Ry
     estimated scf accuracy    <       0.00005943 Ry

     iteration #  2     ecut=    80.00 Ry     beta=0.30
     Davidson diagonalization with overlap
     ethr =  8.25E-08,  avg # of iterations =  1.0

     negative rho (up, down):  2.362E-05 0.000E+00

     total cpu time spent up to now is    13918.2 secs

     total energy              =    -299.05744338 Ry
     Harris-Foulkes estimate   =    -299.05745037 Ry
     estimated scf accuracy    <       0.00003625 Ry

     iteration #  3     ecut=    80.00 Ry     beta=0.30
     Davidson diagonalization with overlap
     ethr =  5.03E-08,  avg # of iterations =  2.0

     negative rho (up, down):  2.213E-05 0.000E+00

     total cpu time spent up to now is    14319.2 secs

     total energy              =    -299.05744679 Ry
     Harris-Foulkes estimate   =    -299.05744692 Ry
     estimated scf accuracy    <       0.00000231 Ry

     iteration #  4     ecut=    80.00 Ry     beta=0.30
     Davidson diagonalization with overlap
     ethr =  3.21E-09,  avg # of iterations =  2.2

     negative rho (up, down):  3.148E-05 0.000E+00

     total cpu time spent up to now is    14709.4 secs

     total energy              =    -299.05744686 Ry
     Harris-Foulkes estimate   =    -299.05744702 Ry
     estimated scf accuracy    <       0.00000118 Ry

     iteration #  5     ecut=    80.00 Ry     beta=0.30
     Davidson diagonalization with overlap
     ethr =  1.65E-09,  avg # of iterations =  1.9

     negative rho (up, down):  6.651E-06 0.000E+00

     total cpu time spent up to now is    15051.3 secs

     End of self-consistent calculation

          k = 0.0000 0.0000 0.0000 ( 53125 PWs)   bands (ev):

    -8.0520  -7.8667  -7.5662  -7.1518  -6.6204  -5.9766  -5.2277  -4.3792
    -3.4290  -2.3859  -1.2543   0.0379   0.2299   0.2299   0.4004   0.4004
     0.6442   0.6767   0.6767   1.0584   1.0584   1.5494   1.5494   1.5920
     1.5920   1.7689   1.7690   2.0540   2.0540   2.1473   2.1473   2.4397
     2.4397   2.5629   2.8461   2.8461   2.9111   2.9112   3.6123   3.6123
     3.6427   3.6427   3.8850

          k = 0.0000 0.0625 0.0000 ( 53127 PWs)   bands (ev):

    -8.0162  -7.8309  -7.5305  -7.1162  -6.5850  -5.9413  -5.1926  -4.3443
    -3.3943  -2.3514  -1.2201  -0.3422  -0.1685   0.0720   0.1130   0.2627
     0.4332   0.5008   0.6773   0.7096   0.9978   1.0912   1.5822   1.5943
     1.6297   1.8031   2.0890   2.1801   2.2247   2.2649   2.3995   2.5170
     2.5962   2.6900   2.8789   2.8811   3.0799   3.2379   3.4127   3.6755
     3.8171   3.9175   4.0466

          k = 0.0000 0.1250 0.0000 ( 53115 PWs)   bands (ev):

    -7.9089  -7.7238  -7.4235  -7.0095  -6.4787  -5.8354  -5.0872  -4.2395
    -3.2901  -2.2480  -1.2465  -1.1176  -1.0702  -0.7847  -0.3913   0.1128
     0.1740   0.3612   0.5316   0.7225   0.7767   0.8080   1.1897   1.4251
     1.6807   1.7281   1.9063   2.1043   2.2786   2.3205   2.5690   2.6958
     2.9774   3.1678   3.2427   3.3115   3.4844   3.6838   3.7739   3.8085
     4.0145   4.0731   4.1849

          k = 0.0000 0.1875 0.0000 ( 53146 PWs)   bands (ev):

    -7.7303  -7.5453  -7.2454  -6.8319  -6.3016  -5.6591  -4.9117  -4.0649
    -3.1166  -2.1453  -2.0758  -1.9673  -1.6791  -1.2818  -0.9469  -0.7726
    -0.1560   0.3439   0.5252   0.5592   0.6957   0.9422   0.9721   1.3538
     1.3606   1.8448   1.8982   2.0352   2.2756   2.3597   2.4427   2.8607
     2.8839   3.1414   3.3336   3.3653   3.9244   3.9379   4.1739   4.4205
     4.5139   4.5799   4.7012

          k = 0.0000 0.2500 0.0000 ( 53102 PWs)   bands (ev):

    -7.4805  -7.2959  -6.9964  -6.5836  -6.0541  -5.4126  -4.6664  -3.8210
    -2.9962  -2.8742  -2.8170  -2.5266  -2.1263  -1.8351  -1.6131  -0.9915
    -0.7083  -0.2693   0.5462   0.5810   0.7550   0.9255   1.1737   1.2019
     1.4475   1.5836   2.0746   2.1185   2.3113   2.3482   2.6725   2.8109
     3.0767   3.0884   3.3711   3.5704   3.6251   4.1674   4.1810   4.3896
     4.7401   4.9601   5.0063

          k = 0.0000 0.3125 0.0000 ( 53088 PWs)   bands (ev):

    -7.1600  -6.9758  -6.6769  -6.2649  -5.7365  -5.0963  -4.3516  -3.7886
    -3.6083  -3.5079  -3.3161  -2.9134  -2.5631  -2.3969  -1.7712  -1.5263
    -1.0439  -0.4024  -0.2211   0.6968   0.8846   1.0504   1.2209   1.4711
     1.4973   1.6872   1.8790   2.3700   2.4320   2.4909   2.9679   2.9947
     2.9974   3.3728   3.3729   3.6665   3.8608   4.1391   4.2043   4.3748
     4.4361   4.4625   4.6511

          k = 0.0000 0.3750 0.0000 ( 53154 PWs)   bands (ev):

    -6.7693  -6.5855  -6.2874  -5.8764  -5.3493  -4.7107  -4.5180  -4.3368
    -4.0431  -3.9678  -3.6383  -3.1263  -3.1191  -2.4900  -2.1840  -1.7585
    -1.1501  -0.9303  -0.0298  -0.0045   1.0064   1.2535   1.4116   1.5821
     1.8341   1.8585   2.0759   2.2402   2.7312   2.7392   3.0856   3.3290
     3.3477   3.4954   3.5142   3.6847   3.6928   3.7351   3.9368   3.9610
     4.0274   4.2536   4.3425

          k = 0.0000 0.4375 0.0000 ( 53154 PWs)   bands (ev):

    -6.3089  -6.1256  -5.8284  -5.4186  -5.1822  -5.0002  -4.8931  -4.7052
    -4.2985  -4.2563  -3.7769  -3.5157  -3.1449  -2.6767  -2.4098  -1.7374
    -1.5775  -0.7071  -0.6461   0.3738   0.4085   1.4722   1.6851   1.8385
     2.0090   2.2621   2.2855   2.6672   2.6703   2.8898   3.0603   3.1581
     3.2953   3.3367   3.3577   3.5059   3.7183   3.7558   3.7780   3.9262
     4.1765   4.2090   4.4541

          k = 0.0000-0.5000 0.0000 ( 53122 PWs)   bands (ev):

    -5.7796  -5.7795  -5.5969  -5.5968  -5.3007  -5.3006  -4.8923  -4.8923
    -4.3686  -4.3686  -3.7341  -3.7340  -2.9961  -2.9960  -2.1601  -2.1601
    -1.2244  -1.2243  -0.1986  -0.1985   0.9105   0.9106   2.1720   2.1721
     2.3312   2.3313   2.5017   2.5018   2.7536   2.7537   2.7782   2.7782
     3.1598   3.1599   3.6507   3.6507   3.7224   3.7224   3.9662   3.9662
     4.2482   4.2482   4.2683

          k = 0.0625 0.0625 0.0000 ( 53111 PWs)   bands (ev):

    -7.9804  -7.7952  -7.4948  -7.0807  -6.5495  -5.9060  -5.1574  -4.3093
    -3.3595  -2.3169  -1.1860  -0.3088  -0.3088  -0.1352  -0.1352   0.1060
     0.1461   0.1461   0.5336   0.5336   0.7104   1.0300   1.0300   1.6364
     1.6364   2.2585   2.2585   2.3380   2.3380   2.4386   2.4386   2.6294
     2.7027   2.7027   3.0816   3.0816   3.1580   3.1580   3.6306   3.6306
     3.9496   4.0859   4.0859

          k = 0.0625 0.1250 0.0000 ( 53106 PWs)   bands (ev):

    -7.8732  -7.6881  -7.3879  -6.9740  -6.4432  -5.8001  -5.0521  -4.2045
    -3.2554  -2.2135  -1.2126  -1.0834  -1.0364  -0.7510  -0.3582  -0.2084
    -0.0355   0.1455   0.2080   0.2456   0.6331   0.7506   0.8097   1.1406
     1.4537   1.7663   2.2650   2.3627   2.4512   2.5266   2.7284   2.8291
     3.0487   3.2398   3.3467   3.4049   3.5095   3.7443   3.7966   4.0450
     4.0453   4.2236   4.2952

          k = 0.0625 0.1875 0.0000 ( 53129 PWs)   bands (ev):

    -7.6946  -7.5097  -7.2098  -6.7964  -6.2662  -5.6238  -4.8766  -4.0301
    -3.0820  -2.1110  -2.0414  -1.9332  -1.6450  -1.2480  -0.9128  -0.7391
    -0.1244  -0.0411   0.1313   0.3777   0.4124   0.5800   0.8162   0.9752
     1.2607   1.4586   1.9169   2.2988   2.5222   2.6174   2.7152   2.8915
     2.9285   3.4163   3.4429   3.4431   3.9225   4.1976   4.3054   4.4266
     4.5283   4.5536   4.7183

          k = 0.0625 0.2500 0.0000 ( 53141 PWs)   bands (ev):

    -7.4449  -7.2603  -6.9609  -6.5481  -6.0188  -5.3774  -4.6314  -3.7861
    -2.9617  -2.8396  -2.7825  -2.4922  -2.0921  -1.8008  -1.5791  -0.9579
    -0.6743  -0.2372   0.1916   0.3648   0.5507   0.6145   0.6756   1.0258
     1.2067   1.5168   1.5477   2.1475   2.4680   2.7651   2.8546   2.9037
     3.1130   3.3078   3.6166   3.6668   3.7197   4.1583   4.3402   4.4700
     4.5305   4.7206   4.7553

          k = 0.0625 0.3125 0.0000 ( 53123 PWs)   bands (ev):

    -7.1245  -6.9402  -6.6415  -6.2295  -5.7013  -5.0612  -4.3167  -3.7538
    -3.5736  -3.4732  -3.2815  -2.8789  -2.5286  -2.3626  -1.7371  -1.4921
    -1.0103  -0.3686  -0.1890   0.4913   0.6413   0.7485   0.9176   0.9427
     1.3548   1.5039   1.7535   1.8430   2.4435   2.7791   3.0343   3.1492
     3.3406   3.3573   3.5805   3.7816   3.8300   3.9471   3.9643   4.1256
     4.1575   4.4759   4.5107

          k = 0.0625 0.3750 0.0000 ( 53123 PWs)   bands (ev):

    -6.7338  -6.5500  -6.2520  -5.8411  -5.3142  -4.6757  -4.4831  -4.3019
    -4.0083  -3.9330  -3.6036  -3.0917  -3.0845  -2.4556  -2.1496  -1.7244
    -1.1160  -0.8968   0.0037   0.0272   0.8515   1.0229   1.0287   1.2847
     1.3507   1.7119   1.8665   2.1469   2.2064   2.8105   2.9647   3.1559
     3.2135   3.4384   3.5066   3.6549   3.6755   3.8124   3.8251   3.9406
     3.9589   4.3221   4.3285

          k = 0.0625 0.4375 0.0000 ( 53148 PWs)   bands (ev):

    -6.2735  -6.0903  -5.7931  -5.3834  -5.1471  -4.9652  -4.8580  -4.6702
    -4.2636  -4.2214  -3.7421  -3.4810  -3.1103  -2.6422  -2.3755  -1.7032
    -1.5434  -0.6733  -0.6127   0.4047   0.4410   1.2864   1.3861   1.5995
     1.7064   1.7582   2.1415   2.2921   2.3692   2.5363   2.6308   2.7792
     2.8135   3.1998   3.2232   3.3602   3.6942   3.8796   3.9540   4.0781
     4.1479   4.2972   4.3658

          k = 0.0625-0.5000 0.0000 ( 53190 PWs)   bands (ev):

    -5.7443  -5.7443  -5.5617  -5.5616  -5.2656  -5.2655  -4.8573  -4.8573
    -4.3337  -4.3337  -3.6993  -3.6993  -2.9615  -2.9615  -2.1258  -2.1257
    -1.1904  -1.1904  -0.1654  -0.1654   0.9394   0.9395   1.7629   1.7629
     1.9769   1.9770   2.2431   2.2432   2.2579   2.2580   2.6360   2.6360
     2.7885   2.7886   3.1347   3.1348   3.7390   3.7390   4.2215   4.2215
     4.4428   4.4429   4.5413

          k = 0.1250 0.1250 0.0000 ( 53105 PWs)   bands (ev):

    -7.7660  -7.5810  -7.2810  -6.8674  -6.3370  -5.6943  -4.9468  -4.0998
    -3.1513  -2.1102  -1.1110  -1.1109  -0.9810  -0.9351  -0.9351  -0.6502
    -0.6502  -0.2581  -0.2581   0.2433   0.2433   0.3097   0.8625   0.8625
     0.9090   1.5929   1.5929   2.3868   2.3868   2.8249   3.2664   3.2664
     3.4403   3.4403   3.6257   3.6257   3.8565   3.8566   4.1314   4.3206
     4.3206   4.3768   4.3768

          k = 0.1250 0.1875 0.0000 ( 53090 PWs)   bands (ev):

    -7.5875  -7.4027  -7.1031  -6.6899  -6.1601  -5.5182  -4.7715  -3.9255
    -2.9780  -2.0084  -1.9382  -1.8307  -1.5429  -1.1468  -0.9415  -0.8106
    -0.7671  -0.6383  -0.4824  -0.0906  -0.0292   0.4270   0.4789   0.6848
     1.0655   1.0743   1.5272   1.7554   2.4165   2.5700   2.9794   3.3530
     3.4907   3.6202   3.7575   4.1382   4.2095   4.3890   4.4381   4.4894
     4.6049   4.6634   4.6930

          k = 0.1250 0.2500 0.0000 ( 53137 PWs)   bands (ev):

    -7.3380  -7.1535  -6.8543  -6.4419  -5.9129  -5.2719  -4.5264  -3.6817
    -2.8582  -2.7359  -2.6792  -2.3892  -1.9895  -1.6979  -1.4773  -0.8586
    -0.7046  -0.5726  -0.5306  -0.2463  -0.1486   0.1643   0.5796   0.7147
     0.7806   1.2799   1.3054   1.6159   1.9858   2.6110   2.7912   3.1403
     3.6313   3.6939   3.6996   3.7094   3.8232   4.0178   4.1295   4.3444
     4.4045   4.6187   4.6851

          k = 0.1250 0.3125 0.0000 ( 53145 PWs)   bands (ev):

    -7.0178  -6.8337  -6.5351  -6.1235  -5.5956  -4.9559  -4.2119  -3.6497
    -3.4696  -3.3690  -3.1777  -2.7755  -2.4252  -2.2597  -1.6351  -1.3896
    -0.9104  -0.4019  -0.2675  -0.2269  -0.1105   0.0820   0.4355   0.8730
     0.9742   1.0151   1.5785   1.6021   1.8567   2.2915   2.7761   2.9182
     2.9824   3.1186   3.2690   3.6081   3.6589   3.9132   4.0515   4.1598
     4.3575   4.4192   4.7055

          k = 0.1250 0.3750 0.0000 ( 53147 PWs)   bands (ev):

    -6.6274  -6.4438  -6.1460  -5.7353  -5.2088  -4.5707  -4.3784  -4.1974
    -3.9040  -3.8286  -3.4995  -2.9878  -2.9808  -2.3525  -2.0465  -1.6223
    -1.0140  -0.7970  -0.0317   0.0795   0.1034   0.1871   0.4220   0.8467
     1.1726   1.3383   1.3702   1.9414   1.9620   2.1300   2.2622   2.2988
     2.5784   2.6511   2.9677   3.4536   3.4646   3.4998   3.9336   4.0715
     4.0752   4.3757   4.5373

          k = 0.1250 0.4375 0.0000 ( 53119 PWs)   bands (ev):

    -6.1675  -5.9843  -5.6874  -5.2780  -5.0419  -4.8601  -4.7530  -4.5653
    -4.1590  -4.1168  -3.6379  -3.3769  -3.0066  -2.5388  -2.2724  -1.6007
    -1.4414  -0.5725  -0.5135   0.3904   0.4973   0.5359   0.5762   0.9087
     1.2728   1.4327   1.6356   1.6723   1.7708   1.8767   1.9502   2.3298
     2.3795   2.3999   2.8384   2.8696   3.1189   3.4306   3.4471   3.9163
     4.1379   4.3504   4.7716

          k = 0.1250-0.5000 0.0000 ( 53126 PWs)   bands (ev):

    -5.6387  -5.6386  -5.4562  -5.4561  -5.1602  -5.1602  -4.7523  -4.7522
    -4.2291  -4.2290  -3.5951  -3.5951  -2.8579  -2.8578  -2.0229  -2.0229
    -1.0888  -1.0888  -0.0677  -0.0676   0.9022   0.9022   0.9470   0.9470
     1.1994   1.1994   1.3862   1.3863   1.7718   1.7719   2.2531   2.2532
     2.3598   2.3599   2.8236   2.8236   2.9425   2.9425   3.5914   3.5914
     4.3970   4.3971   4.7415

          k = 0.1875 0.1875 0.0000 ( 53109 PWs)   bands (ev):

    -7.4092  -7.2247  -6.9254  -6.5127  -5.9835  -5.3422  -4.5964  -3.7513
    -2.8050  -1.8375  -1.8374  -1.7665  -1.6602  -1.6602  -1.3731  -1.3731
    -0.9779  -0.9779  -0.6406  -0.4728  -0.4728   0.1533   0.1533   0.6469
     0.8905   0.8905   1.2392   1.6924   1.6924   2.6002   2.6002   3.0732
     3.5936   3.5937   3.6571   3.6583   3.9701   4.3570   4.5638   4.6138
     4.6141   4.7948   4.8619

          k = 0.1875 0.2500 0.0000 ( 53097 PWs)   bands (ev):

    -7.1600  -6.9758  -6.6769  -6.2649  -5.7365  -5.0963  -4.3516  -3.5079
    -2.6860  -2.5632  -2.5072  -2.2177  -1.8192  -1.5983  -1.5266  -1.4230
    -1.3073  -1.1359  -0.7413  -0.6946  -0.4033  -0.2188   0.0263   0.4223
     0.8726   0.8799   1.1188   1.4697   1.7704   1.9412   2.6631   2.7363
     2.8744   2.8888   3.1624   3.4901   3.5535   3.7516   3.9537   4.0557
     4.6350   4.7870   4.7955

          k = 0.1875 0.3125 0.0000 ( 53134 PWs)   bands (ev):

    -6.8402  -6.6563  -6.3581  -5.9469  -5.4196  -4.7807  -4.0375  -3.4763
    -3.2965  -3.1956  -3.0050  -2.6034  -2.2530  -2.0886  -1.4668  -1.2915
    -1.2190  -1.1164  -0.8301  -0.7522  -0.4166  -0.0998  -0.0063   0.1897
     0.7059   1.0226   1.1679   1.4160   1.7637   1.9575   2.0300   2.1274
     2.2266   2.4080   2.7986   3.1206   3.1374   3.2966   3.7527   3.9053
     4.1337   4.3530   4.6164

          k = 0.1875 0.3750 0.0000 ( 53123 PWs)   bands (ev):

    -6.4503  -6.2669  -5.9694  -5.5592  -5.0333  -4.3959  -4.2041  -4.0233
    -3.7302  -3.6547  -3.3263  -2.8150  -2.8084  -2.1812  -1.8750  -1.4534
    -0.9189  -0.8447  -0.7429  -0.6475  -0.4336  -0.0769   0.2660   0.3396
     0.4655   1.0736   1.1859   1.3285   1.4344   1.6175   1.7130   1.7909
     2.0878   2.1423   2.4039   2.6047   2.6238   3.2156   3.4481   3.7605
     3.9063   4.1234   4.1838

          k = 0.1875 0.4375 0.0000 ( 53144 PWs)   bands (ev):

    -5.9909  -5.8080  -5.5114  -5.1025  -4.8667  -4.6851  -4.5780  -4.3907
    -3.9849  -3.9426  -3.4644  -3.2036  -2.8340  -2.3667  -2.1011  -1.4303
    -1.2728  -0.4788  -0.4064  -0.3845  -0.2664  -0.0227   0.4044   0.5931
     0.6194   0.7059   0.8854   0.8993   1.0812   1.4683   1.5041   1.8040
     1.9426   2.0403   2.2176   2.5039   2.6340   3.0226   3.0668   3.2954
     3.6235   3.9619   4.1038

          k = 0.1875-0.5000 0.0000 ( 53118 PWs)   bands (ev):

    -5.4628  -5.4627  -5.2805  -5.2804  -4.9849  -4.9848  -4.5774  -4.5773
    -4.0548  -4.0547  -3.4216  -3.4216  -2.6854  -2.6853  -1.8519  -1.8518
    -0.9210  -0.9210   0.0079   0.0079   0.0996   0.0997   0.1992   0.1993
     0.5331   0.5331   0.9004   0.9004   1.2378   1.2378   1.4005   1.4006
     2.0120   2.0121   2.4801   2.4802   2.7564   2.7564   3.0366   3.0367
     3.5572   3.5572   4.4394

          k = 0.2500 0.2500 0.0000 ( 53157 PWs)   bands (ev):

    -6.9112  -6.7272  -6.4289  -6.0175  -5.4900  -4.8508  -4.1073  -3.2650
    -2.4452  -2.4452  -2.3219  -2.2670  -2.2670  -1.9783  -1.9783  -1.5808
    -1.5808  -1.2874  -1.0726  -1.0726  -0.4423  -0.4423  -0.1676   0.2962
     0.2962   1.1004   1.1035   1.1035   1.6975   1.8976   2.0178   2.0178
     2.0677   2.3487   2.7396   3.0227   3.0227   3.2380   3.6898   3.8472
     4.1097   4.1097   4.5589

          k = 0.2500 0.3125 0.0000 ( 53162 PWs)   bands (ev):

    -6.5920  -6.4084  -6.1106  -5.7001  -5.1736  -4.5357  -3.7937  -3.2340
    -3.0545  -2.9533  -2.7637  -2.3633  -2.1361  -2.0124  -1.9600  -1.8489
    -1.6713  -1.2744  -1.2330  -0.9811  -0.7494  -0.5070  -0.1092   0.1308
     0.3385   0.5936   1.0592   1.2407   1.3104   1.4212   1.4858   1.5894
     1.9613   2.0135   2.2127   2.3746   2.4827   3.0944   3.2379   3.4503
     3.7849   3.9992   4.3243

          k = 0.2500 0.3750 0.0000 ( 53145 PWs)   bands (ev):

    -6.2027  -6.0196  -5.7226  -5.3131  -4.7879  -4.1516  -3.9604  -3.7799
    -3.4873  -3.4116  -3.0842  -2.5734  -2.5676  -1.9433  -1.7593  -1.6357
    -1.5834  -1.2956  -1.2251  -0.8809  -0.6101  -0.4677  -0.2826   0.2453
     0.4016   0.4212   0.5543   0.6909   0.8909   0.9587   1.2789   1.5669
     1.7493   1.7729   1.8456   2.3083   2.4445   2.6649   2.6876   3.1099
     3.6876   3.9199   3.9216

          k = 0.2500 0.4375 0.0000 ( 53163 PWs)   bands (ev):

    -5.7441  -5.5615  -5.2653  -4.8571  -4.6219  -4.4405  -4.3335  -4.1466
    -3.7415  -3.6992  -3.2220  -2.9615  -2.5930  -2.1264  -1.8628  -1.3169
    -1.1935  -1.1400  -1.0527  -0.8307  -0.4703  -0.2538  -0.1672  -0.0665
    -0.0597   0.0717   0.2735   0.6431   0.6826   0.9269   0.9697   1.1446
     1.4029   1.7578   2.0073   2.2151   2.2390   2.5045   2.7729   3.0612
     3.3076   3.3800   3.7909

          k = 0.2500-0.5000 0.0000 ( 53124 PWs)   bands (ev):

    -5.2169  -5.2168  -5.0348  -5.0348  -4.7397  -4.7397  -4.3329  -4.3329
    -3.8112  -3.8112  -3.1792  -3.1792  -2.4446  -2.4445  -1.6140  -1.6140
    -0.8072  -0.8072  -0.7196  -0.7196  -0.5973  -0.5972  -0.3492  -0.3492
     0.0776   0.0776   0.3687   0.3687   0.5751   0.5751   1.1809   1.1810
     1.4716   1.4716   1.8970   1.8971   2.7039   2.7040   2.7393   2.7394
     3.2964   3.2964   3.6480

          k = 0.3125 0.3125 0.0000 ( 53201 PWs)   bands (ev):

    -6.2734  -6.0902  -5.7930  -5.3833  -4.8580  -4.2214  -3.4810  -2.9231
    -2.9231  -2.7442  -2.7442  -2.6424  -2.4543  -2.4542  -2.0550  -2.0550
    -1.7042  -1.5445  -1.5445  -0.9115  -0.9115  -0.6781  -0.1736  -0.1735
     0.3371   0.3550   0.6254   0.6381   0.6381   0.8267   1.2150   1.5565
     1.5565   1.6841   1.7803   2.2428   2.3808   2.5662   2.5662   3.0472
     3.6600   3.6600   3.8577

          k = 0.3125 0.3750 0.0000 ( 53199 PWs)   bands (ev):

    -5.8850  -5.7022  -5.4058  -4.9972  -4.4731  -3.8382  -3.6477  -3.4676
    -3.1759  -3.0998  -2.7742  -2.5438  -2.3671  -2.2639  -2.2580  -2.0774
    -1.6789  -1.6396  -1.3301  -1.1524  -0.9098  -0.5139  -0.3858  -0.3012
    -0.1906  -0.0662   0.1418   0.1940   0.5126   0.8350   0.8391   1.0149
     1.0253   1.6288   1.8147   1.9822   2.0816   2.3767   2.6408   2.8445
     3.0618   3.1808   3.9362

          k = 0.3125 0.4375 0.0000 ( 53184 PWs)   bands (ev):

    -5.4274  -5.2451  -4.9496  -4.5422  -4.3076  -4.1267  -4.0198  -3.8335
    -3.4293  -3.3869  -2.9113  -2.6511  -2.2853  -2.0972  -1.9207  -1.8192
    -1.6319  -1.5645  -1.2166  -1.0065  -0.9215  -0.7989  -0.7977  -0.6248
    -0.5473  -0.1212  -0.0884   0.1652   0.2173   0.3779   0.6274   0.9843
     1.2331   1.2710   1.4440   1.7019   2.3348   2.3614   2.5100   2.5407
     3.0994   3.3639   3.4564

          k = 0.3125-0.5000 0.0000 ( 53132 PWs)   bands (ev):

    -4.9013  -4.9013  -4.7197  -4.7196  -4.4252  -4.4251  -4.0193  -4.0192
    -3.4988  -3.4987  -2.8685  -2.8684  -2.1367  -2.1367  -1.5852  -1.5851
    -1.4078  -1.4078  -1.3238  -1.3237  -1.0987  -1.0987  -0.7353  -0.7352
    -0.3393  -0.3393  -0.1946  -0.1946   0.4182   0.4182   0.6574   0.6575
     1.1404   1.1405   1.7405   1.7406   1.9785   1.9786   2.7997   2.7997
     3.1201   3.1202   3.5279

          k = 0.3750 0.3750 0.0000 ( 53236 PWs)   bands (ev):

    -5.4977  -5.3153  -5.0196  -4.6120  -4.0894  -3.4562  -3.2665  -3.2665
    -3.0871  -3.0871  -2.7964  -2.7964  -2.7201  -2.3960  -2.3960  -1.8878
    -1.8838  -1.8838  -1.2491  -1.2491  -1.0732  -0.9889  -0.8648  -0.6136
    -0.5120  -0.5120  -0.1879   0.0972   0.3028   0.3028   0.3118   0.9184
     1.2040   1.2239   1.2239   1.6365   2.2366   2.2366   2.4450   2.4742
     3.0336   3.3337   3.3338

          k = 0.3750 0.4375 0.0000 ( 53180 PWs)   bands (ev):

    -5.0413  -4.8594  -4.5647  -4.1584  -3.9246  -3.7441  -3.6374  -3.4518
    -3.0493  -3.0064  -2.8173  -2.6402  -2.5319  -2.3497  -2.2739  -1.9501
    -1.9118  -1.7200  -1.5424  -1.4595  -1.4230  -1.2334  -1.1796  -0.8683
    -0.7860  -0.4762  -0.3375  -0.3286  -0.0744   0.2852   0.5223   0.5697
     0.7593   1.0084   1.5475   1.6067   1.7183   1.8474   2.5801   2.6682
     2.8000   2.9892   3.3960

          k = 0.3750-0.5000 0.0000 ( 53234 PWs)   bands (ev):

    -4.5166  -4.5166  -4.3354  -4.3354  -4.0417  -4.0417  -3.6370  -3.6369
    -3.1182  -3.1182  -2.4912  -2.4911  -2.3010  -2.3010  -2.1242  -2.1241
    -1.8349  -1.8348  -1.7687  -1.7686  -1.4194  -1.4193  -0.9981  -0.9980
    -0.8318  -0.8318  -0.2900  -0.2900   0.0143   0.0143   0.4272   0.4273
     1.0319   1.0320   1.2453   1.2453   2.1355   2.1355   2.1641   2.1641
     3.1680   3.1681   3.3999

          k = 0.4375 0.4375 0.0000 ( 53278 PWs)   bands (ev):

    -4.5863  -4.4050  -4.1112  -3.7063  -3.4734  -3.4733  -3.2937  -3.2937
    -3.1872  -3.0025  -3.0024  -2.6014  -2.6014  -2.5599  -2.3691  -2.1922
    -2.0881  -2.0881  -1.9026  -1.8368  -1.4871  -1.4526  -1.4526  -1.0645
    -0.9010  -0.7161  -0.7161  -0.3574  -0.0535   0.1006   0.1006   0.3603
     0.9648   1.0233   1.0233   1.1788   2.0377   2.0377   2.0689   2.0981
     3.1026   3.1367   3.1367

          k = 0.4375-0.5000 0.0000 ( 53318 PWs)   bands (ev):

    -4.0634  -4.0633  -3.8828  -3.8827  -3.5901  -3.5901  -3.1872  -3.1871
    -2.9545  -2.9544  -2.7771  -2.7771  -2.6692  -2.6692  -2.4863  -2.4863
    -2.0862  -2.0862  -2.0483  -2.0482  -1.5588  -1.5587  -1.3149  -1.3148
    -0.9226  -0.9225  -0.4737  -0.4736  -0.2091  -0.2090   0.4346   0.4346
     0.6258   0.6258   1.4135   1.4136   1.5858   1.5859   2.4473   2.4474
     2.6685   2.6686   3.5432

          k =-0.5000-0.5000 0.0000 ( 53320 PWs)   bands (ev):

    -3.5425  -3.5424  -3.5424  -3.5424  -3.3627  -3.3626  -3.3626  -3.3626
    -3.0713  -3.0712  -3.0712  -3.0712  -2.6700  -2.6699  -2.6699  -2.6699
    -2.1564  -2.1563  -2.1563  -2.1563  -1.5206  -1.5205  -1.5205  -1.5205
    -0.7843  -0.7843  -0.7843  -0.7842   0.0330   0.0331   0.0331   0.0332
     0.9563   0.9563   0.9563   0.9564   1.9711   1.9712   1.9712   1.9713
     3.0708   3.0708   3.0708

     the Fermi energy is     3.1409 ev

!    total energy              =    -299.05744611 Ry
     Harris-Foulkes estimate   =    -299.05744691 Ry
     estimated scf accuracy    <       0.00000095 Ry

     The total energy is the sum of the following terms:

     one-electron contribution =   -2211.43157777 Ry
     hartree contribution      =    1128.79245414 Ry
     xc contribution           =    -240.42173025 Ry
     ewald contribution        =    1024.00299531 Ry
     smearing contrib. (-TS)   =       0.00041245 Ry

     convergence has been achieved in   5 iterations

     Forces acting on atoms (Ry/au):


     negative rho (up, down):  6.651E-06 0.000E+00
     atom    1 type  1   force =     0.00000000    0.00000000   -0.00303239
     atom    2 type  1   force =     0.00000000    0.00000000   -0.00303633
     atom    3 type  1   force =     0.00000000    0.00000000    0.00147698
     atom    4 type  1   force =     0.00000000    0.00000000    0.00147698
     atom    5 type  1   force =     0.00000000    0.00000000    0.00069865
     atom    6 type  1   force =     0.00000000    0.00000000    0.00071012
     atom    7 type  1   force =     0.00000000    0.00000000    0.00080733
     atom    8 type  1   force =     0.00000000    0.00000000    0.00080733
     atom    9 type  1   force =     0.00000000    0.00000000   -0.00008421
     atom   10 type  1   force =     0.00000000    0.00000000   -0.00008382
     atom   11 type  1   force =     0.00000000    0.00000000   -0.00019281
     atom   12 type  1   force =     0.00000000    0.00000000   -0.00019281
     atom   13 type  1   force =     0.00000000    0.00000000    0.00019251
     atom   14 type  1   force =     0.00000000    0.00000000    0.00018691
     atom   15 type  1   force =     0.00000000    0.00000000    0.00008677
     atom   16 type  1   force =     0.00000000    0.00000000    0.00008677
     atom   17 type  1   force =     0.00000000    0.00000000   -0.00080897
     atom   18 type  1   force =     0.00000000    0.00000000   -0.00081507
     atom   19 type  1   force =     0.00000000    0.00000000   -0.00070379
     atom   20 type  1   force =     0.00000000    0.00000000   -0.00070379
     atom   21 type  1   force =     0.00000000    0.00000000   -0.00146942
     atom   22 type  1   force =     0.00000000    0.00000000   -0.00147712
     atom   23 type  1   force =     0.00000000    0.00000000    0.00303510
     atom   24 type  1   force =     0.00000000    0.00000000    0.00303510

     Total force =     0.007094     Total SCF correction =     0.001609
     SCF correction compared to forces is large: reduce conv_thr to get better values


     entering subroutine stress ...


     negative rho (up, down):  6.651E-06 0.000E+00
          total   stress  (Ry/bohr**3)                   (kbar)     P=   -4.53
  -0.00005589   0.00000000   0.00000000         -8.22      0.00      0.00
   0.00000000  -0.00005589   0.00000000          0.00     -8.22      0.00
   0.00000000   0.00000000   0.00001932          0.00      0.00      2.84


     number of scf cycles    =   2
     number of bfgs steps    =   1

     energy   old            =    -299.0573886703 Ry
     energy   new            =    -299.0574461125 Ry

     CASE: energy  _new < energy  _old


     WARNING: bfgs curvature condition failed, Theta= 0.875
     new trust radius        =       0.0035886671 bohr
     new conv_thr            =       0.0000000100 Ry


ATOMIC_POSITIONS (crystal)
Al       0.000000000   0.000000000  -0.000089978
Al       0.500000000   0.500000000  -0.000090087
Al       0.500000000   0.000000000   0.050046908
Al       0.000000000   0.500000000   0.050046908
Al       0.000000000   0.000000000   0.100018380
Al       0.500000000   0.500000000   0.100018722
Al       0.500000000   0.000000000   0.150024328
Al       0.000000000   0.500000000   0.150024328
Al       0.000000000   0.000000000   0.199996838
Al       0.500000000   0.500000000   0.199996853
Al       0.500000000   0.000000000   0.249993975
Al       0.000000000   0.500000000   0.249993975
Al       0.000000000   0.000000000   0.300006030
Al       0.500000000   0.500000000   0.300005864
Al       0.500000000   0.000000000   0.350003276
Al       0.000000000   0.500000000   0.350003276
Al       0.000000000   0.000000000   0.399975614
Al       0.500000000   0.500000000   0.399975432
Al       0.500000000   0.000000000   0.449981528
Al       0.000000000   0.500000000   0.449981528
Al       0.000000000   0.000000000   0.499953270
Al       0.500000000   0.500000000   0.499953050
Al       0.500000000   0.000000000   0.550089990
Al       0.000000000   0.500000000   0.550089990



     Writing output data file Al_100_6_4.save
     NEW-OLD atomic charge density approx. for the potential

     negative rho (up, down):  6.505E-06 0.000E+00

     total cpu time spent up to now is    15264.8 secs

     per-process dynamical memory:  1806.7 Mb

     Self-consistent Calculation

     iteration #  1     ecut=    80.00 Ry     beta=0.30
     Davidson diagonalization with overlap
     ethr =  1.00E-06,  avg # of iterations =  2.0

     negative rho (up, down):  5.218E-06 0.000E+00

     total cpu time spent up to now is    15690.8 secs

     total energy              =    -299.05751207 Ry
     Harris-Foulkes estimate   =    -299.05752525 Ry
     estimated scf accuracy    <       0.00194897 Ry

     iteration #  2     ecut=    80.00 Ry     beta=0.30
     Davidson diagonalization with overlap
     ethr =  2.71E-06,  avg # of iterations =  1.0

     negative rho (up, down):  3.036E-06 0.000E+00

     total cpu time spent up to now is    16033.4 secs

     total energy              =    -299.05748663 Ry
     Harris-Foulkes estimate   =    -299.05751531 Ry
     estimated scf accuracy    <       0.00106869 Ry

     iteration #  3     ecut=    80.00 Ry     beta=0.30
     Davidson diagonalization with overlap
     ethr =  1.48E-06,  avg # of iterations =  1.0

     negative rho (up, down):  3.376E-06 0.000E+00

     total cpu time spent up to now is    16380.7 secs

     total energy              =    -299.05750196 Ry
     Harris-Foulkes estimate   =    -299.05750214 Ry
     estimated scf accuracy    <       0.00000798 Ry

     iteration #  4     ecut=    80.00 Ry     beta=0.30
     Davidson diagonalization with overlap
     ethr =  1.11E-08,  avg # of iterations =  4.2

     negative rho (up, down):  3.557E-06 0.000E+00

     total cpu time spent up to now is    16794.8 secs

     total energy              =    -299.05750285 Ry
     Harris-Foulkes estimate   =    -299.05750286 Ry
     estimated scf accuracy    <       0.00000067 Ry

     iteration #  5     ecut=    80.00 Ry     beta=0.30
     Davidson diagonalization with overlap
     ethr =  9.34E-10,  avg # of iterations =  2.8

     negative rho (up, down):  4.568E-06 0.000E+00

     total cpu time spent up to now is    17171.6 secs

     total energy              =    -299.05750281 Ry
     Harris-Foulkes estimate   =    -299.05750287 Ry
     estimated scf accuracy    <       0.00000036 Ry

     iteration #  6     ecut=    80.00 Ry     beta=0.30
     Davidson diagonalization with overlap
     ethr =  4.93E-10,  avg # of iterations =  2.8

     negative rho (up, down):  4.581E-06 0.000E+00

     total cpu time spent up to now is    17553.1 secs

     total energy              =    -299.05750286 Ry
     Harris-Foulkes estimate   =    -299.05750286 Ry
     estimated scf accuracy    <       0.00000032 Ry

     iteration #  7     ecut=    80.00 Ry     beta=0.30
     Davidson diagonalization with overlap
     ethr =  4.44E-10,  avg # of iterations =  1.0

     negative rho (up, down):  4.652E-06 0.000E+00

     total cpu time spent up to now is    17893.5 secs

     total energy              =    -299.05750284 Ry
     Harris-Foulkes estimate   =    -299.05750286 Ry
     estimated scf accuracy    <       0.00000031 Ry

     iteration #  8     ecut=    80.00 Ry     beta=0.30
     Davidson diagonalization with overlap
     ethr =  4.31E-10,  avg # of iterations =  1.0

     negative rho (up, down):  5.021E-06 0.000E+00

     total cpu time spent up to now is    18233.6 secs

     total energy              =    -299.05750279 Ry
     Harris-Foulkes estimate   =    -299.05750284 Ry
     estimated scf accuracy    <       0.00000024 Ry

     iteration #  9     ecut=    80.00 Ry     beta=0.30
     Davidson diagonalization with overlap
     ethr =  3.35E-10,  avg # of iterations =  2.1

     negative rho (up, down):  5.441E-06 0.000E+00

     total cpu time spent up to now is    18585.7 secs

     total energy              =    -299.05750280 Ry
     Harris-Foulkes estimate   =    -299.05750280 Ry
     estimated scf accuracy    <       0.00000002 Ry

     iteration # 10     ecut=    80.00 Ry     beta=0.30
     Davidson diagonalization with overlap
     ethr =  2.76E-11,  avg # of iterations =  4.1

     negative rho (up, down):  6.628E-06 0.000E+00

     total cpu time spent up to now is    19005.7 secs

     End of self-consistent calculation

          k = 0.0000 0.0000 0.0000 ( 53125 PWs)   bands (ev):

    -8.0528  -7.8674  -7.5657  -7.1511  -6.6190  -5.9753  -5.2278  -4.3804
    -3.4304  -2.3877  -1.2559   0.0356   0.2291   0.2291   0.3997   0.3997
     0.6421   0.6773   0.6773   1.0592   1.0592   1.5511   1.5511   1.5911
     1.5912   1.7683   1.7684   2.0544   2.0545   2.1489   2.1489   2.4400
     2.4401   2.5617   2.8462   2.8462   2.9117   2.9118   3.6146   3.6147
     3.6415   3.6415   3.8828

          k = 0.0000 0.0625 0.0000 ( 53127 PWs)   bands (ev):

    -8.0171  -7.8316  -7.5300  -7.1156  -6.5835  -5.9400  -5.1927  -4.3455
    -3.3957  -2.3532  -1.2217  -0.3431  -0.1691   0.0697   0.1135   0.2619
     0.4325   0.5015   0.6752   0.7101   0.9994   1.0920   1.5839   1.5957
     1.6290   1.8024   2.0894   2.1817   2.2239   2.2648   2.3988   2.5182
     2.5950   2.6900   2.8790   2.8822   3.0797   3.2372   3.4131   3.6743
     3.8195   3.9153   4.0451

          k = 0.0000 0.1250 0.0000 ( 53115 PWs)   bands (ev):

    -7.9098  -7.7245  -7.4230  -7.0089  -6.4772  -5.8341  -5.0873  -4.2406
    -3.2915  -2.2497  -1.2473  -1.1191  -1.0709  -0.7842  -0.3906   0.1144
     0.1717   0.3603   0.5310   0.7239   0.7745   0.8086   1.1905   1.4251
     1.6824   1.7272   1.9056   2.1037   2.2802   2.3207   2.5698   2.6946
     2.9775   3.1688   3.2413   3.3106   3.4836   3.6844   3.7727   3.8090
     4.0123   4.0728   4.1830

          k = 0.0000 0.1875 0.0000 ( 53146 PWs)   bands (ev):

    -7.7311  -7.5460  -7.2449  -6.8312  -6.3002  -5.6578  -4.9118  -4.0661
    -3.1181  -2.1461  -2.0775  -1.9680  -1.6786  -1.2811  -0.9484  -0.7710
    -0.1546   0.3416   0.5244   0.5592   0.6950   0.9400   0.9727   1.3546
     1.3595   1.8465   1.8973   2.0341   2.2752   2.3602   2.4443   2.8594
     2.8840   3.1416   3.3346   3.3636   3.9252   3.9366   4.1717   4.4191
     4.5130   4.5796   4.7005

          k = 0.0000 0.2500 0.0000 ( 53102 PWs)   bands (ev):

    -7.4814  -7.2965  -6.9960  -6.5829  -6.0527  -5.4113  -4.6665  -3.8221
    -2.9970  -2.8756  -2.8177  -2.5261  -2.1257  -1.8368  -1.6116  -0.9901
    -0.7098  -0.2693   0.5451   0.5787   0.7541   0.9248   1.1716   1.2024
     1.4461   1.5844   2.0763   2.1176   2.3107   2.3476   2.6741   2.8104
     3.0772   3.0872   3.3713   3.5716   3.6236   4.1662   4.1821   4.3874
     4.7388   4.9592   5.0054

          k = 0.0000 0.3125 0.0000 ( 53088 PWs)   bands (ev):

    -7.1609  -6.9764  -6.6764  -6.2642  -5.7351  -5.0950  -4.3517  -3.7894
    -3.6090  -3.5091  -3.3156  -2.9127  -2.5645  -2.3954  -1.7699  -1.5281
    -1.0439  -0.4039  -0.2222   0.6954   0.8823   1.0496   1.2202   1.4690
     1.4979   1.6855   1.8798   2.3718   2.4312   2.4900   2.9696   2.9951
     2.9961   3.3716   3.3734   3.6666   3.8617   4.1372   4.2035   4.3741
     4.4363   4.4613   4.6517

          k = 0.0000 0.3750 0.0000 ( 53154 PWs)   bands (ev):

    -6.7701  -6.5861  -6.2869  -5.8757  -5.3478  -4.7094  -4.5189  -4.3375
    -4.0426  -3.9679  -3.6376  -3.1274  -3.1176  -2.4887  -2.1854  -1.7585
    -1.1518  -0.9315  -0.0313  -0.0059   1.0047   1.2512   1.4107   1.5814
     1.8320   1.8591   2.0745   2.2410   2.7330   2.7383   3.0849   3.3307
     3.3481   3.4932   3.5133   3.6840   3.6915   3.7355   3.9349   3.9616
     4.0275   4.2549   4.3433

          k = 0.0000 0.4375 0.0000 ( 53154 PWs)   bands (ev):

    -6.3097  -6.1262  -5.8279  -5.4179  -5.1830  -5.0009  -4.8916  -4.7047
    -4.2978  -4.2550  -3.7754  -3.5158  -3.1436  -2.6779  -2.4099  -1.7388
    -1.5786  -0.7088  -0.6475   0.3721   0.4070   1.4707   1.6828   1.8377
     2.0084   2.2600   2.2861   2.6680   2.6684   2.8889   3.0597   3.1599
     3.2935   3.3373   3.3565   3.5050   3.7191   3.7574   3.7785   3.9250
     4.1771   4.2108   4.4541

          k = 0.0000-0.5000 0.0000 ( 53122 PWs)   bands (ev):

    -5.7805  -5.7803  -5.5976  -5.5974  -5.3003  -5.3001  -4.8917  -4.8916
    -4.3672  -4.3671  -3.7329  -3.7327  -2.9962  -2.9960  -2.1613  -2.1612
    -1.2259  -1.2257  -0.2003  -0.2002   0.9089   0.9091   2.1697   2.1699
     2.3303   2.3305   2.5010   2.5012   2.7515   2.7517   2.7787   2.7789
     3.1606   3.1608   3.6524   3.6526   3.7212   3.7214   3.9654   3.9656
     4.2498   4.2500   4.2687

          k = 0.0625 0.0625 0.0000 ( 53111 PWs)   bands (ev):

    -7.9813  -7.7959  -7.4944  -7.0800  -6.5481  -5.9047  -5.1575  -4.3105
    -3.3610  -2.3187  -1.1875  -0.3097  -0.3097  -0.1359  -0.1358   0.1037
     0.1466   0.1467   0.5343   0.5344   0.7083   1.0315   1.0316   1.6380
     1.6380   2.2576   2.2577   2.3379   2.3379   2.4380   2.4381   2.6281
     2.7030   2.7030   3.0823   3.0824   3.1572   3.1572   3.6311   3.6312
     3.9474   4.0844   4.0844

          k = 0.0625 0.1250 0.0000 ( 53106 PWs)   bands (ev):

    -7.8740  -7.6887  -7.3874  -6.9733  -6.4418  -5.7988  -5.0522  -4.2057
    -3.2568  -2.2153  -1.2134  -1.0850  -1.0371  -0.7505  -0.3575  -0.2093
    -0.0362   0.1471   0.2057   0.2461   0.6338   0.7519   0.8076   1.1424
     1.4540   1.7675   2.2638   2.3619   2.4512   2.5258   2.7271   2.8297
     3.0487   3.2386   3.3458   3.4043   3.5087   3.7455   3.7969   4.0428
     4.0448   4.2220   4.2959

          k = 0.0625 0.1875 0.0000 ( 53129 PWs)   bands (ev):

    -7.6954  -7.5103  -7.2093  -6.7957  -6.2648  -5.6226  -4.8767  -4.0312
[...]
    -0.6789  -0.2285   0.1925   0.3691   0.5533   0.6037   0.6897   1.0422
     1.1973   1.5148   1.5676   2.1659   2.4636   2.7667   2.8641   2.9084
     3.1107   3.3203   3.6153   3.6814   3.7184   4.1763   4.3344   4.4710
     4.5280   4.7198   4.7712

          k = 0.0625 0.3125 0.0000 ( 53123 PWs)   bands (ev):

    -7.1233  -6.9356  -6.6267  -6.2140  -5.6821  -5.0442  -4.3084  -3.7527
    -3.5690  -3.4726  -3.2667  -2.8632  -2.5310  -2.3432  -1.7198  -1.4980
    -1.0016  -0.3731  -0.1881   0.4923   0.6424   0.7507   0.9068   0.9580
     1.3702   1.4947   1.7482   1.8632   2.4616   2.7771   3.0354   3.1585
     3.3385   3.3604   3.5947   3.7825   3.8344   3.9478   3.9796   4.1412
     4.1486   4.4941   4.5266

          k = 0.0625 0.3750 0.0000 ( 53123 PWs)   bands (ev):

    -6.7327  -6.5454  -6.2373  -5.8255  -5.2950  -4.6587  -4.4820  -4.2974
    -3.9936  -3.9247  -3.5879  -3.0911  -3.0652  -2.4384  -2.1520  -1.7158
    -1.1218  -0.8960  -0.0008   0.0250   0.8520   1.0203   1.0335   1.2741
     1.3635   1.7280   1.8574   2.1429   2.2268   2.8292   2.9651   3.1604
     3.2100   3.4538   3.5147   3.6598   3.6712   3.8110   3.8416   3.9506
     3.9550   4.3309   4.3429

          k = 0.0625 0.4375 0.0000 ( 53148 PWs)   bands (ev):

    -6.2724  -6.0857  -5.7784  -5.3679  -5.1460  -4.9606  -4.8389  -4.6555
    -4.2480  -4.2044  -3.7228  -3.4727  -3.0931  -2.6416  -2.3670  -1.7055
    -1.5426  -0.6791  -0.6149   0.3992   0.4367   1.2875   1.3875   1.5985
     1.6963   1.7733   2.1577   2.2834   2.3695   2.5405   2.6493   2.7716
     2.8289   3.2162   3.2373   3.3564   3.7148   3.8799   3.9628   4.0823
     4.1461   4.3161   4.3805

          k = 0.0625-0.5000 0.0000 ( 53190 PWs)   bands (ev):

    -5.7433  -5.7431  -5.5571  -5.5570  -5.2509  -5.2507  -4.8418  -4.8416
    -4.3146  -4.3144  -3.6823  -3.6822  -2.9532  -2.9530  -2.1252  -2.1250
    -1.1928  -1.1926  -0.1712  -0.1710   0.9352   0.9353   1.7633   1.7636
     1.9814   1.9815   2.2370   2.2372   2.2692   2.2693   2.6518   2.6520
     2.7800   2.7802   3.1553   3.1554   3.7577   3.7579   4.2205   4.2206
     4.4522   4.4523   4.5457

          k = 0.1250 0.1250 0.0000 ( 53105 PWs)   bands (ev):

    -7.7648  -7.5764  -7.2663  -6.8519  -6.3179  -5.6774  -4.9386  -4.0993
    -3.1538  -2.1162  -1.1099  -1.1098  -0.9857  -0.9305  -0.9305  -0.6352
    -0.6352  -0.2423  -0.2423   0.2624   0.2625   0.2989   0.8818   0.8818
     0.8996   1.6014   1.6015   2.3876   2.3876   2.8225   3.2642   3.2642
     3.4412   3.4413   3.6323   3.6323   3.8696   3.8696   4.1209   4.3334
     4.3335   4.3731   4.3731

          k = 0.1250 0.1875 0.0000 ( 53090 PWs)   bands (ev):

    -7.5864  -7.3981  -7.0884  -6.6744  -6.1410  -5.5013  -4.7633  -3.9250
    -2.9805  -2.0073  -1.9442  -1.8261  -1.5280  -1.1309  -0.9404  -0.8152
    -0.7622  -0.6191  -0.4676  -0.0753  -0.0123   0.4481   0.4681   0.6965
     1.0649   1.0814   1.5278   1.7644   2.4134   2.5719   2.9770   3.3491
     3.4887   3.6215   3.7624   4.1510   4.2032   4.3847   4.4392   4.5046
     4.6018   4.6635   4.6924

          k = 0.1250 0.2500 0.0000 ( 53137 PWs)   bands (ev):

    -7.3369  -7.1489  -6.8396  -6.4263  -5.8937  -5.2550  -4.5182  -3.6812
    -2.8571  -2.7383  -2.6746  -2.3743  -1.9738  -1.7038  -1.4578  -0.8411
    -0.7036  -0.5771  -0.5261  -0.2317  -0.1405   0.1816   0.5942   0.7039
     0.7874   1.2962   1.2974   1.6138   1.9945   2.6060   2.7923   3.1380
     3.6294   3.6922   3.7007   3.7135   3.8240   4.0335   4.1324   4.3588
     4.4195   4.6096   4.6796

          k = 0.1250 0.3125 0.0000 ( 53145 PWs)   bands (ev):

    -7.0167  -6.8291  -6.5204  -6.1079  -5.5764  -4.9390  -4.2037  -3.6486
    -3.4650  -3.3685  -3.1629  -2.7598  -2.4276  -2.2403  -1.6178  -1.3954
    -0.9018  -0.4010  -0.2720  -0.2227  -0.1090   0.0972   0.4517   0.8711
     0.9936   1.0045   1.5929   1.5964   1.8508   2.3008   2.7763   2.9147
     2.9869   3.1195   3.2842   3.6072   3.6752   3.9111   4.0495   4.1801
     4.3622   4.4127   4.6992

          k = 0.1250 0.3750 0.0000 ( 53147 PWs)   bands (ev):

    -6.6263  -6.4392  -6.1312  -5.7198  -5.1896  -4.5537  -4.3773  -4.1928
    -3.8892  -3.8202  -3.4839  -2.9872  -2.9615  -2.3353  -2.0489  -1.6137
    -1.0199  -0.7962  -0.0307   0.0776   0.0990   0.1923   0.4372   0.8619
     1.1669   1.3582   1.3601   1.9532   1.9586   2.1301   2.2590   2.3031
     2.5936   2.6601   2.9839   3.4546   3.4849   3.4912   3.9322   4.0677
     4.0900   4.3734   4.5368

          k = 0.1250 0.4375 0.0000 ( 53119 PWs)   bands (ev):

    -6.1664  -5.9798  -5.6727  -5.2624  -5.0408  -4.8555  -4.7338  -4.5506
    -4.1434  -4.0998  -3.6186  -3.3686  -2.9894  -2.5382  -2.2640  -1.6030
    -1.4407  -0.5782  -0.5158   0.3900   0.4952   0.5317   0.5810   0.9216
     1.2887   1.4328   1.6314   1.6769   1.7907   1.8671   1.9650   2.3416
     2.3952   2.3977   2.8586   2.8612   3.1267   3.4227   3.4655   3.9169
     4.1465   4.3497   4.7699

          k = 0.1250-0.5000 0.0000 ( 53126 PWs)   bands (ev):

    -5.6377  -5.6374  -5.4516  -5.4515  -5.1455  -5.1454  -4.7367  -4.7366
    -4.2099  -4.2097  -3.5781  -3.5779  -2.8495  -2.8494  -2.0223  -2.0221
    -1.0912  -1.0910  -0.0733  -0.0731   0.9031   0.9034   0.9467   0.9468
     1.1999   1.2001   1.4010   1.4012   1.7877   1.7879   2.2655   2.2656
     2.3570   2.3572   2.8269   2.8271   2.9486   2.9487   3.6007   3.6009
     4.3980   4.3982   4.7401

          k = 0.1875 0.1875 0.0000 ( 53109 PWs)   bands (ev):

    -7.4081  -7.2201  -6.9106  -6.4971  -5.9643  -5.3253  -4.5881  -3.7508
    -2.8075  -1.8364  -1.8363  -1.7724  -1.6556  -1.6556  -1.3582  -1.3581
    -0.9623  -0.9622  -0.6452  -0.4540  -0.4539   0.1725   0.1726   0.6361
     0.8988   0.8988   1.2299   1.6931   1.6931   2.5983   2.5983   3.0709
     3.5884   3.5884   3.6582   3.6624   3.9857   4.3717   4.5549   4.6118
     4.6118   4.7953   4.8823

          k = 0.1875 0.2500 0.0000 ( 53097 PWs)   bands (ev):

    -7.1589  -6.9712  -6.6622  -6.2493  -5.7174  -5.0793  -4.3433  -3.5074
    -2.6849  -2.5656  -2.5027  -2.2028  -1.8033  -1.5973  -1.5325  -1.4180
    -1.2883  -1.1212  -0.7261  -0.6779  -0.4078  -0.1978   0.0379   0.4381
     0.8692   0.8730   1.1276   1.4605   1.7671   1.9434   2.6632   2.7316
     2.8789   2.8862   3.1776   3.4892   3.5697   3.7478   3.9484   4.0759
     4.6482   4.7812   4.7940

          k = 0.1875 0.3125 0.0000 ( 53134 PWs)   bands (ev):

    -6.8391  -6.6517  -6.3434  -5.9314  -5.4005  -4.7637  -4.0292  -3.4752
    -3.2919  -3.1950  -2.9902  -2.5876  -2.2554  -2.0692  -1.4494  -1.2906
    -1.2248  -1.1120  -0.8157  -0.7443  -0.3995  -0.1043   0.0073   0.1974
     0.7230   1.0204   1.1577   1.4244   1.7548   1.9577   2.0248   2.1316
     2.2277   2.4232   2.8147   3.1170   3.1356   3.3168   3.7514   3.9236
     4.1285   4.3452   4.6258

          k = 0.1875 0.3750 0.0000 ( 53123 PWs)   bands (ev):

    -6.4492  -6.2623  -5.9547  -5.5437  -5.0141  -4.3789  -4.2030  -4.0187
    -3.7154  -3.6463  -3.3106  -2.8144  -2.7890  -2.1640  -1.8774  -1.4449
    -0.9180  -0.8505  -0.7387  -0.6463  -0.4183  -0.0608   0.2617   0.3376
     0.4848   1.0912   1.1859   1.3224   1.4390   1.6079   1.7278   1.8003
     2.0940   2.1429   2.4002   2.6248   2.6249   3.2338   3.4454   3.7518
     3.9148   4.1229   4.1782

          k = 0.1875 0.4375 0.0000 ( 53144 PWs)   bands (ev):

    -5.9898  -5.8034  -5.4967  -5.0869  -4.8656  -4.6806  -4.5588  -4.3760
    -3.9693  -3.9256  -3.4451  -3.1953  -2.8168  -2.3660  -2.0926  -1.4326
    -1.2720  -0.4778  -0.4120  -0.3868  -0.2609  -0.0076   0.4195   0.5942
     0.6187   0.7002   0.8865   0.9190   1.0960   1.4842   1.5208   1.8009
     1.9506   2.0416   2.2265   2.5042   2.6429   3.0237   3.0575   3.3047
     3.6156   3.9595   4.1049

          k = 0.1875-0.5000 0.0000 ( 53118 PWs)   bands (ev):

    -5.4618  -5.4615  -5.2759  -5.2758  -4.9702  -4.9700  -4.5618  -4.5617
    -4.0356  -4.0355  -3.4046  -3.4044  -2.6770  -2.6769  -1.8513  -1.8511
    -0.9234  -0.9232   0.0068   0.0071   0.0979   0.0980   0.2040   0.2041
     0.5460   0.5462   0.9160   0.9162   1.2333   1.2335   1.4202   1.4204
     2.0299   2.0301   2.4713   2.4715   2.7641   2.7643   3.0285   3.0287
     3.5578   3.5580   4.4376

          k = 0.2500 0.2500 0.0000 ( 53157 PWs)   bands (ev):

    -6.9101  -6.7227  -6.4142  -6.0020  -5.4708  -4.8338  -4.0990  -3.2644
    -2.4441  -2.4441  -2.3243  -2.2624  -2.2624  -1.9634  -1.9633  -1.5652
    -1.5652  -1.2932  -1.0539  -1.0539  -0.4233  -0.4233  -0.1721   0.3043
     0.3043   1.0902   1.1041   1.1042   1.6886   1.8977   2.0159   2.0160
     2.0720   2.3638   2.7558   3.0174   3.0174   3.2581   3.6885   3.8655
     4.1062   4.1062   4.5683

          k = 0.2500 0.3125 0.0000 ( 53162 PWs)   bands (ev):

    -6.5909  -6.4038  -6.0959  -5.6845  -5.1544  -4.5187  -3.7854  -3.2329
    -3.0499  -2.9527  -2.7488  -2.3475  -2.1350  -2.0148  -1.9549  -1.8301
    -1.6566  -1.2594  -1.2164  -0.9869  -0.7286  -0.4957  -0.0934   0.1265
     0.3388   0.6024   1.0590   1.2372   1.3150   1.4235   1.4762   1.6042
     1.9652   2.0165   2.2080   2.3721   2.5027   3.1126   3.2340   3.4452
     3.7933   3.9988   4.3222

          k = 0.2500 0.3750 0.0000 ( 53145 PWs)   bands (ev):

    -6.2016  -6.0150  -5.7078  -5.2975  -4.7687  -4.1346  -3.9593  -3.7753
    -3.4725  -3.4033  -3.0686  -2.5728  -2.5482  -1.9261  -1.7583  -1.6380
    -1.5789  -1.2812  -1.2172  -0.8639  -0.6157  -0.4547  -0.2746   0.2623
     0.4027   0.4203   0.5522   0.6921   0.9057   0.9670   1.2948   1.5618
     1.7552   1.7740   1.8488   2.3077   2.4543   2.6613   2.6859   3.1192
     3.6827   3.9133   3.9211

          k = 0.2500 0.4375 0.0000 ( 53163 PWs)   bands (ev):

    -5.7430  -5.5569  -5.2506  -4.8415  -4.6207  -4.4360  -4.3143  -4.1319
    -3.7259  -3.6821  -3.2027  -2.9531  -2.5758  -2.1257  -1.8544  -1.3159
    -1.1959  -1.1358  -1.0516  -0.8155  -0.4542  -0.2550  -0.1688  -0.0685
    -0.0549   0.0908   0.2865   0.6587   0.7000   0.9207   0.9653   1.1643
     1.4122   1.7757   2.0035   2.2062   2.2401   2.5123   2.7648   3.0584
     3.3083   3.3712   3.7852

          k = 0.2500-0.5000 0.0000 ( 53124 PWs)   bands (ev):

    -5.2159  -5.2156  -5.0303  -5.0302  -4.7250  -4.7249  -4.3174  -4.3172
    -3.7920  -3.7919  -3.1622  -3.1620  -2.4362  -2.4360  -1.6134  -1.6132
    -0.8063  -0.8061  -0.7222  -0.7219  -0.5917  -0.5916  -0.3342  -0.3341
     0.0926   0.0928   0.3628   0.3629   0.5946   0.5948   1.1973   1.1974
     1.4686   1.4688   1.9057   1.9059   2.7049   2.7051   2.7299   2.7301
     3.2883   3.2885   3.6456

          k = 0.3125 0.3125 0.0000 ( 53201 PWs)   bands (ev):

    -6.2723  -6.0856  -5.7783  -5.3678  -4.8388  -4.2043  -3.4727  -2.9220
    -2.9219  -2.7396  -2.7395  -2.6418  -2.4394  -2.4393  -2.0395  -2.0395
    -1.7066  -1.5259  -1.5258  -0.8927  -0.8927  -0.6838  -0.1655  -0.1655
     0.3382   0.3540   0.6266   0.6387   0.6387   0.8415   1.2308   1.5546
     1.5547   1.6894   1.7840   2.2419   2.3908   2.5609   2.5610   3.0565
     3.6566   3.6566   3.8589

          k = 0.3125 0.3750 0.0000 ( 53199 PWs)   bands (ev):

    -5.8839  -5.6976  -5.3911  -4.9816  -4.4539  -3.8211  -3.6466  -3.4630
    -3.1610  -3.0915  -2.7584  -2.5428  -2.3620  -2.2632  -2.2393  -2.0627
    -1.6638  -1.6230  -1.3324  -1.1318  -0.8988  -0.4981  -0.3872  -0.3027
    -0.1858  -0.0659   0.1549   0.2028   0.5283   0.8306   0.8355   1.0277
     1.0345   1.6467   1.8099   1.9798   2.0727   2.3845   2.6327   2.8406
     3.0567   3.1815   3.9340

          k = 0.3125 0.4375 0.0000 ( 53184 PWs)   bands (ev):

    -5.4263  -5.2405  -4.9348  -4.5266  -4.3065  -4.1221  -4.0005  -3.8187
    -3.4137  -3.3698  -2.8920  -2.6427  -2.2681  -2.0962  -1.9162  -1.8186
    -1.6175  -1.5566  -1.1998  -1.0055  -0.9240  -0.7921  -0.7862  -0.6166
    -0.5322  -0.1061  -0.0715   0.1593   0.2152   0.3974   0.6356   1.0006
     1.2280   1.2682   1.4452   1.7106   2.3312   2.3597   2.5110   2.5313
     3.0914   3.3590   3.4541

          k = 0.3125-0.5000 0.0000 ( 53132 PWs)   bands (ev):

    -4.9003  -4.9000  -4.7151  -4.7150  -4.4105  -4.4103  -4.0037  -4.0035
    -3.4795  -3.4794  -2.8514  -2.8512  -2.1284  -2.1283  -1.5844  -1.5841
    -1.4036  -1.4035  -1.3228  -1.3226  -1.0835  -1.0834  -0.7193  -0.7191
    -0.3415  -0.3413  -0.1756  -0.1754   0.4355   0.4357   0.6512   0.6513
     1.1496   1.1498   1.7367   1.7369   1.9796   1.9798   2.7968   2.7970
     3.1113   3.1115   3.5219

          k = 0.3750 0.3750 0.0000 ( 53236 PWs)   bands (ev):

    -5.4965  -5.3107  -5.0049  -4.5965  -4.0701  -3.4391  -3.2654  -3.2654
    -3.0825  -3.0825  -2.7816  -2.7815  -2.7117  -2.3805  -2.3805  -1.8871
    -1.8652  -1.8651  -1.2305  -1.2305  -1.0722  -0.9914  -0.8592  -0.5985
    -0.5040  -0.5040  -0.1728   0.0913   0.3033   0.3034   0.3313   0.9346
     1.2012   1.2221   1.2221   1.6452   2.2313   2.2314   2.4460   2.4648
     3.0256   3.3303   3.3304

          k = 0.3750 0.4375 0.0000 ( 53180 PWs)   bands (ev):

    -5.0401  -4.8549  -4.5499  -4.1427  -3.9235  -3.7396  -3.6181  -3.4370
    -3.0335  -2.9893  -2.8162  -2.6351  -2.5132  -2.3350  -2.2656  -1.9351
    -1.8953  -1.7191  -1.5382  -1.4585  -1.4024  -1.2182  -1.1689  -0.8523
    -0.7701  -0.4783  -0.3374  -0.3095  -0.0656   0.3026   0.5161   0.5661
     0.7617   1.0176   1.5428   1.6029   1.7160   1.8486   2.5762   2.6654
     2.7950   2.9804   3.3902

          k = 0.3750-0.5000 0.0000 ( 53234 PWs)   bands (ev):

    -4.5156  -4.5153  -4.3309  -4.3308  -4.0270  -4.0268  -3.6214  -3.6212
    -3.0989  -3.0988  -2.4741  -2.4739  -2.3002  -2.2999  -2.1198  -2.1196
    -1.8205  -1.8203  -1.7610  -1.7608  -1.4026  -1.4025  -0.9857  -0.9856
    -0.8235  -0.8233  -0.2733  -0.2732   0.0121   0.0123   0.4353   0.4355
     1.0268   1.0270   1.2463   1.2465   2.1319   2.1320   2.1623   2.1625
     3.1631   3.1633   3.3913

          k = 0.4375 0.4375 0.0000 ( 53278 PWs)   bands (ev):

    -4.5852  -4.4005  -4.0964  -3.6906  -3.4722  -3.4722  -3.2891  -3.2890
    -3.1679  -2.9876  -2.9876  -2.5859  -2.5859  -2.5427  -2.3682  -2.1877
    -2.0695  -2.0694  -1.8882  -1.8290  -1.4703  -1.4340  -1.4340  -1.0522
    -0.8926  -0.7081  -0.7081  -0.3407  -0.0556   0.1012   0.1013   0.3684
     0.9597   1.0215   1.0216   1.1799   2.0325   2.0325   2.0654   2.0964
     3.0978   3.1333   3.1333

          k = 0.4375-0.5000 0.0000 ( 53318 PWs)   bands (ev):

    -4.0624  -4.0621  -3.8782  -3.8781  -3.5753  -3.5752  -3.1715  -3.1713
    -2.9535  -2.9533  -2.7721  -2.7720  -2.6506  -2.6504  -2.4717  -2.4716
    -2.0713  -2.0711  -2.0318  -2.0316  -1.5383  -1.5382  -1.3043  -1.3041
    -0.9067  -0.9065  -0.4736  -0.4735  -0.2003  -0.2002   0.4309   0.4311
     0.6281   0.6283   1.4087   1.4088   1.5834   1.5836   2.4434   2.4436
     2.6634   2.6636   3.5411

          k =-0.5000-0.5000 0.0000 ( 53320 PWs)   bands (ev):

    -3.5416  -3.5412  -3.5412  -3.5410  -3.3581  -3.3580  -3.3580  -3.3579
    -3.0566  -3.0564  -3.0564  -3.0563  -2.6546  -2.6544  -2.6544  -2.6543
    -2.1379  -2.1377  -2.1377  -2.1376  -1.5022  -1.5020  -1.5020  -1.5019
    -0.7764  -0.7762  -0.7762  -0.7761   0.0335   0.0337   0.0337   0.0338
     0.9544   0.9546   0.9546   0.9547   1.9659   1.9661   1.9661   1.9662
     3.0674   3.0674   3.0676

     the Fermi energy is     3.1445 ev

!    total energy              =    -299.05922723 Ry
     Harris-Foulkes estimate   =    -299.05772724 Ry
     estimated scf ac
     Forces acting on atoms (Ry/au):


     negative rho (up, down):  6.497E-06 0.000E+00
     atom    1 type  1   force =     0.00000000    0.00000000   -0.00082578
     atom    2 type  1   force =     0.00000000    0.00000000   -0.00082550
     atom    3 type  1   force =     0.00000000    0.00000000   -0.00075860
     atom    4 type  1   force =     0.00000000    0.00000000   -0.00075860
     atom    5 type  1   force =     0.00000000    0.00000000    0.00074937
     atom    6 type  1   force =     0.00000000    0.00000000    0.00075541
     atom    7 type  1   force =     0.00000000    0.00000000    0.00031003
     atom    8 type  1   force =     0.00000000    0.00000000    0.00031003
     atom    9 type  1   force =     0.00000000    0.00000000    0.00026885
     atom   10 type  1   force =     0.00000000    0.00000000    0.00028308
     atom   11 type  1   force =     0.00000000    0.00000000    0.00008104
     atom   12 type  1   force =     0.00000000    0.00000000    0.00008104
     atom   13 type  1   force =     0.00000000    0.00000000   -0.00007969
     atom   14 type  1   force =     0.00000000    0.00000000   -0.00008145
     atom   15 type  1   force =     0.00000000    0.00000000   -0.00028021
     atom   16 type  1   force =     0.00000000    0.00000000   -0.00028021
     atom   17 type  1   force =     0.00000000    0.00000000   -0.00029743
     atom   18 type  1   force =     0.00000000    0.00000000   -0.00031316
     atom   19 type  1   force =     0.00000000    0.00000000   -0.00075369
     atom   20 type  1   force =     0.00000000    0.00000000   -0.00075369
     atom   21 type  1   force =     0.00000000    0.00000000    0.00076332
     atom   22 type  1   force =     0.00000000    0.00000000    0.00075907
     atom   23 type  1   force =     0.00000000    0.00000000    0.00082339
     atom   24 type  1   force =     0.00000000    0.00000000    0.00082339

     Total force =     0.002831     Total SCF correction =     0.000147


     entering subroutine stress ...


     negative rho (up, down):  6.497E-06 0.000E+00
          total   stress  (Ry/bohr**3)                   (kbar)     P=   -5.06
  -0.00005854   0.00000000   0.00000000         -8.61      0.00      0.00
   0.00000000  -0.00005854   0.00000000          0.00     -8.61      0.00
   0.00000000   0.00000000   0.00001379          0.00      0.00      2.03


     bfgs converged in   6 scf cycles and   5 bfgs steps
     (criteria: energy <  1.0E-04, force <  1.0E-03)

     End of BFGS Geometry Optimization

     Final energy   =    -299.0577272332 Ry
Begin final coordinates

ATOMIC_POSITIONS (crystal)
Al       0.000000000   0.000000000  -0.000426167
Al       0.500000000   0.500000000  -0.000426295
Al       0.500000000   0.000000000   0.050169888
Al       0.000000000   0.500000000   0.050169888
Al       0.000000000   0.000000000   0.100118020
Al       0.500000000   0.500000000   0.100120547
Al       0.500000000   0.000000000   0.150116169
Al       0.000000000   0.500000000   0.150116169
Al       0.000000000   0.000000000   0.199996021
Al       0.500000000   0.500000000   0.200000337
Al       0.500000000   0.000000000   0.249975855
Al       0.000000000   0.500000000   0.249975855
Al       0.000000000   0.000000000   0.300023756
Al       0.500000000   0.500000000   0.300022909
Al       0.500000000   0.000000000   0.350003404
Al       0.000000000   0.500000000   0.350003404
Al       0.000000000   0.000000000   0.399884627
Al       0.500000000   0.500000000   0.399879604
Al       0.500000000   0.000000000   0.449881754
Al       0.000000000   0.500000000   0.449881754
Al       0.000000000   0.000000000   0.499831626
Al       0.500000000   0.500000000   0.499830094
Al       0.500000000   0.000000000   0.550425391
Al       0.000000000   0.500000000   0.550425391
End final coordinates



     Writing output data file Al_100_6_4.save

 %%%%%%%%%%%%%%%%%%%%%%%%%%%%%%%%%%%%%%%%%%%%%%%%%%%%%%%%%%%%%%%%%%%%%%%%%%%%%%
     Error in routine davcio (10):
     error while writing from file "./tmp/Al_100_6_4.wfc1"
 %%%%%%%%%%%%%%%%%%%%%%%%%%%%%%%%%%%%%%%%%%%%%%%%%%%%%%%%%%%%%%%%%%%%%%%%%%%%%%

     stopping ...
--------------------------------------------------------------------------
MPI_ABORT was invoked on rank 0 in communicator MPI_COMM_WORLD 
with errorcode 1.

NOTE: invoking MPI_ABORT causes Open MPI to kill all MPI processes.
You may or may not see output from other processes, depending on
exactly when Open MPI kills them.
-------------------
