--------------------------------------------------------------------------
[[20168,1],0]: A high-performance Open MPI point-to-point messaging module
was unable to find any relevant network interfaces:

Module: OpenFabrics (openib)
  Host: ubuntu

Another transport will be used instead, although this may result in
lower performance.
--------------------------------------------------------------------------

     Program PWSCF v.5.1 starts on 29May2020 at 11:24:29 

     This program is part of the open-source Quantum ESPRESSO suite
     for quantum simulation of materials; please cite
         "P. Giannozzi et al., J. Phys.:Condens. Matter 21 395502 (2009);
          URL http://www.quantum-espresso.org", 
     in publications or presentations arising from this work. More details at
     http://www.quantum-espresso.org/quote

     Parallel version (MPI), running on     1 processors
     Reading input from Al_100_surf_slab_5.pw.in

     Current dimensions of program PWSCF are:
     Max number of different atomic species (ntypx) = 10
     Max number of k-points (npk) =  40000
     Max angular momentum in pseudopotentials (lmaxx) =  3

     Subspace diagonalization in iterative solution of the eigenvalue problem:
     a serial algorithm will be used

     Found symmetry operation: I + ( -0.5000 -0.5000  0.0000)
     This is a supercell, fractional translations are disabled

     G-vector sticks info
     --------------------
     sticks:   dense  smooth     PW     G-vecs:    dense   smooth      PW
     Sum         681     681    421               122579   122579   58019



     bravais-lattice index     =            6
     lattice parameter (alat)  =       7.6050  a.u.
     unit-cell volume          =    3958.5867 (a.u.)^3
     number of atoms/cell      =           20
     number of atomic types    =            1
     number of electrons       =        60.00
     number of Kohn-Sham states=           36
     kinetic-energy cutoff     =      80.0000  Ry
     charge density cutoff     =     150.0000  Ry
     convergence threshold     =      1.0E-06
     mixing beta               =       0.3000
     number of iterations used =            8  local-TF  mixing
     Exchange-correlation      =  SLA  PW   PBE  PBE ( 1  4  3  4 0)
     nstep                     =           50


     celldm(1)=   7.605000  celldm(2)=   0.000000  celldm(3)=   9.000000
     celldm(4)=   0.000000  celldm(5)=   0.000000  celldm(6)=   0.000000

     crystal axes: (cart. coord. in units of alat)
               a(1) = (   1.000000   0.000000   0.000000 )  
               a(2) = (   0.000000   1.000000   0.000000 )  
               a(3) = (   0.000000   0.000000   9.000000 )  

     reciprocal axes: (cart. coord. in units 2 pi/alat)
               b(1) = (  1.000000  0.000000  0.000000 )  
               b(2) = (  0.000000  1.000000  0.000000 )  
               b(3) = (  0.000000  0.000000  0.111111 )  


     PseudoPot. # 1 for Al read from file:
     ./Al.pbe-n-van.UPF
     MD5 check sum: b11ded24487aef5bc42d5c7a2e22a7b6
     Pseudo is Ultrasoft + core correction, Zval =  3.0
     Generated by new atomic code, or converted to UPF format
     Using radial grid of  893 points,  2 beta functions with: 
                l(1) =   0
                l(2) =   1
     Q(r) pseudized with  8 coefficients,  rinner =    0.900   0.900   0.900


     atomic species   valence    mass     pseudopotential
        Al             3.00    26.98000     Al( 1.00)

      8 Sym. Ops. (no inversion) found



   Cartesian axes

     site n.     atom                  positions (alat units)
         1           Al  tau(   1) = (   0.0000000   0.0000000   0.0000000  )
         2           Al  tau(   2) = (   0.5000000   0.5000000   0.0000000  )
         3           Al  tau(   3) = (   0.5000000   0.0000000   0.5000000  )
         4           Al  tau(   4) = (   0.0000000   0.5000000   0.5000000  )
         5           Al  tau(   5) = (   0.0000000   0.0000000   1.0000000  )
         6           Al  tau(   6) = (   0.5000000   0.5000000   1.0000000  )
         7           Al  tau(   7) = (   0.5000000   0.0000000   1.5000000  )
         8           Al  tau(   8) = (   0.0000000   0.5000000   1.5000000  )
         9           Al  tau(   9) = (   0.0000000   0.0000000   2.0000000  )
        10           Al  tau(  10) = (   0.5000000   0.5000000   2.0000000  )
        11           Al  tau(  11) = (   0.5000000   0.0000000   2.5000000  )
        12           Al  tau(  12) = (   0.0000000   0.5000000   2.5000000  )
        13           Al  tau(  13) = (   0.0000000   0.0000000   3.0000000  )
        14           Al  tau(  14) = (   0.5000000   0.5000000   3.0000000  )
        15           Al  tau(  15) = (   0.5000000   0.0000000   3.5000000  )
        16           Al  tau(  16) = (   0.0000000   0.5000000   3.5000000  )
        17           Al  tau(  17) = (   0.0000000   0.0000000   4.0000000  )
        18           Al  tau(  18) = (   0.5000000   0.5000000   4.0000000  )
        19           Al  tau(  19) = (   0.5000000   0.0000000   4.5000000  )
        20           Al  tau(  20) = (   0.0000000   0.5000000   4.5000000  )

     number of k points=    45  Marzari-Vanderbilt smearing, width (Ry)=  0.0250
                       cart. coord. in units 2pi/alat
        k(    1) = (   0.0000000   0.0000000   0.0000000), wk =   0.0078125
        k(    2) = (   0.0000000   0.0625000   0.0000000), wk =   0.0312500
        k(    3) = (   0.0000000   0.1250000   0.0000000), wk =   0.0312500
        k(    4) = (   0.0000000   0.1875000   0.0000000), wk =   0.0312500
        k(    5) = (   0.0000000   0.2500000   0.0000000), wk =   0.0312500
        k(    6) = (   0.0000000   0.3125000   0.0000000), wk =   0.0312500
        k(    7) = (   0.0000000   0.3750000   0.0000000), wk =   0.0312500
        k(    8) = (   0.0000000   0.4375000   0.0000000), wk =   0.0312500
        k(    9) = (   0.0000000  -0.5000000   0.0000000), wk =   0.0156250
        k(   10) = (   0.0625000   0.0625000   0.0000000), wk =   0.0312500
        k(   11) = (   0.0625000   0.1250000   0.0000000), wk =   0.0625000
        k(   12) = (   0.0625000   0.1875000   0.0000000), wk =   0.0625000
        k(   13) = (   0.0625000   0.2500000   0.0000000), wk =   0.0625000
        k(   14) = (   0.0625000   0.3125000   0.0000000), wk =   0.0625000
        k(   15) = (   0.0625000   0.3750000   0.0000000), wk =   0.0625000
        k(   16) = (   0.0625000   0.4375000   0.0000000), wk =   0.0625000
        k(   17) = (   0.0625000  -0.5000000   0.0000000), wk =   0.0312500
        k(   18) = (   0.1250000   0.1250000   0.0000000), wk =   0.0312500
        k(   19) = (   0.1250000   0.1875000   0.0000000), wk =   0.0625000
        k(   20) = (   0.1250000   0.2500000   0.0000000), wk =   0.0625000
        k(   21) = (   0.1250000   0.3125000   0.0000000), wk =   0.0625000
        k(   22) = (   0.1250000   0.3750000   0.0000000), wk =   0.0625000
        k(   23) = (   0.1250000   0.4375000   0.0000000), wk =   0.0625000
        k(   24) = (   0.1250000  -0.5000000   0.0000000), wk =   0.0312500
        k(   25) = (   0.1875000   0.1875000   0.0000000), wk =   0.0312500
        k(   26) = (   0.1875000   0.2500000   0.0000000), wk =   0.0625000
        k(   27) = (   0.1875000   0.3125000   0.0000000), wk =   0.0625000
        k(   28) = (   0.1875000   0.3750000   0.0000000), wk =   0.0625000
        k(   29) = (   0.1875000   0.4375000   0.0000000), wk =   0.0625000
        k(   30) = (   0.1875000  -0.5000000   0.0000000), wk =   0.0312500
        k(   31) = (   0.2500000   0.2500000   0.0000000), wk =   0.0312500
        k(   32) = (   0.2500000   0.3125000   0.0000000), wk =   0.0625000
        k(   33) = (   0.2500000   0.3750000   0.0000000), wk =   0.0625000
        k(   34) = (   0.2500000   0.4375000   0.0000000), wk =   0.0625000
        k(   35) = (   0.2500000  -0.5000000   0.0000000), wk =   0.0312500
        k(   36) = (   0.3125000   0.3125000   0.0000000), wk =   0.0312500
        k(   37) = (   0.3125000   0.3750000   0.0000000), wk =   0.0625000
        k(   38) = (   0.3125000   0.4375000   0.0000000), wk =   0.0625000
        k(   39) = (   0.3125000  -0.5000000   0.0000000), wk =   0.0312500
        k(   40) = (   0.3750000   0.3750000   0.0000000), wk =   0.0312500
        k(   41) = (   0.3750000   0.4375000   0.0000000), wk =   0.0625000
        k(   42) = (   0.3750000  -0.5000000   0.0000000), wk =   0.0312500
        k(   43) = (   0.4375000   0.4375000   0.0000000), wk =   0.0312500
        k(   44) = (   0.4375000  -0.5000000   0.0000000), wk =   0.0312500
        k(   45) = (  -0.5000000  -0.5000000   0.0000000), wk =   0.0078125

     Dense  grid:   122579 G-vectors     FFT dimensions: (  30,  30, 270)

     Largest allocated arrays     est. size (Mb)     dimensions
        Kohn-Sham Wavefunctions        26.35 Mb     (   47970,   36)
        NL pseudopotentials            58.56 Mb     (   47970,   80)
        Each V/rho on FFT grid          3.71 Mb     (  243000)
        Each G-vector array             0.94 Mb     (  122579)
        G-vector shells                 0.03 Mb     (    4575)
     Largest temporary arrays     est. size (Mb)     dimensions
        Auxiliary wavefunctions       105.40 Mb     (   47970,  144)
        Each subspace H/S matrix        0.32 Mb     (     144,  144)
        Each <psi_i|beta_j> matrix      0.04 Mb     (      80,   36)
        Arrays for rho mixing          29.66 Mb     (  243000,    8)

     Initial potential from superposition of free atoms

     starting charge   59.95069, renormalised to   60.00000

     negative rho (up, down):  4.883E-05 0.000E+00
     Starting wfc are   80 randomized atomic wfcs

     total cpu time spent up to now is      244.5 secs

     per-process dynamical memory:  1355.3 Mb

     Self-consistent Calculation

     iteration #  1     ecut=    80.00 Ry     beta=0.30
     Davidson diagonalization with overlap
     ethr =  1.00E-02,  avg # of iterations =  2.8

     total cpu time spent up to now is      648.3 secs

     total energy              =    -249.26908039 Ry
     Harris-Foulkes estimate   =    -249.32035866 Ry
     estimated scf accuracy    <       1.79215951 Ry

     iteration #  2     ecut=    80.00 Ry     beta=0.30
     Davidson diagonalization with overlap
     ethr =  2.99E-03,  avg # of iterations =  1.0

     total cpu time spent up to now is      904.6 secs

     total energy              =    -249.10483907 Ry
     Harris-Foulkes estimate   =    -249.28382970 Ry
     estimated scf accuracy    <       1.31748699 Ry

     iteration #  3     ecut=    80.00 Ry     beta=0.30
     Davidson diagonalization with overlap
     ethr =  2.20E-03,  avg # of iterations =  2.0

     total cpu time spent up to now is     1212.9 secs

     total energy              =    -249.18106233 Ry
     Harris-Foulkes estimate   =    -249.21374504 Ry
     estimated scf accuracy    <       0.25968256 Ry

     iteration #  4     ecut=    80.00 Ry     beta=0.30
     Davidson diagonalization with overlap
     ethr =  4.33E-04,  avg # of iterations =  2.4

     total cpu time spent up to now is     1506.1 secs

     total energy              =    -249.19606159 Ry
     Harris-Foulkes estimate   =    -249.19697656 Ry
     estimated scf accuracy    <       0.02112999 Ry

     iteration #  5     ecut=    80.00 Ry     beta=0.30
     Davidson diagonalization with overlap
     ethr =  3.52E-05,  avg # of iterations =  4.4

     total cpu time spent up to now is     1790.0 secs

     total energy              =    -249.19212382 Ry
     Harris-Foulkes estimate   =    -249.19750656 Ry
     estimated scf accuracy    <       0.02655750 Ry

     iteration #  6     ecut=    80.00 Ry     beta=0.30
     Davidson diagonalization with overlap
     ethr =  3.52E-05,  avg # of iterations =  1.3

     total cpu time spent up to now is     2024.4 secs

     total energy              =    -249.19299305 Ry
     Harris-Foulkes estimate   =    -249.19309390 Ry
     estimated scf accuracy    <       0.03337597 Ry

     iteration #  7     ecut=    80.00 Ry     beta=0.30
     Davidson diagonalization with overlap
     ethr =  3.52E-05,  avg # of iterations =  2.4

     negative rho (up, down):  1.307E-03 0.000E+00

     total cpu time spent up to now is     2269.5 secs

     total energy              =    -249.18628914 Ry
     Harris-Foulkes estimate   =    -249.19398772 Ry
     estimated scf accuracy    <       0.09366633 Ry

     iteration #  8     ecut=    80.00 Ry     beta=0.30
     Davidson diagonalization with overlap
     ethr =  3.52E-05,  avg # of iterations =  3.2

     negative rho (up, down):  9.498E-03 0.000E+00

     total cpu time spent up to now is     2545.7 secs

     total energy              =    -249.19031181 Ry
     Harris-Foulkes estimate   =    -249.19062009 Ry
     estimated scf accuracy    <       0.00862058 Ry

     iteration #  9     ecut=    80.00 Ry     beta=0.30
     Davidson diagonalization with overlap
     ethr =  1.44E-05,  avg # of iterations =  1.3

     negative rho (up, down):  1.496E-02 0.000E+00

     total cpu time spent up to now is     2776.6 secs

     total energy              =    -249.18983190 Ry
     Harris-Foulkes estimate   =    -249.19044802 Ry
     estimated scf accuracy    <       0.01163300 Ry

     iteration # 10     ecut=    80.00 Ry     beta=0.30
     Davidson diagonalization with overlap
     ethr =  1.44E-05,  avg # of iterations =  2.9

     negative rho (up, down):  1.767E-02 0.000E+00

     total cpu time spent up to now is     3063.3 secs

     total energy              =    -249.18953619 Ry
     Harris-Foulkes estimate   =    -249.19122130 Ry
     estimated scf accuracy    <       0.03135017 Ry

     iteration # 11     ecut=    80.00 Ry     beta=0.30
     Davidson diagonalization with overlap
     ethr =  1.44E-05,  avg # of iterations =  1.7

     negative rho (up, down):  8.896E-03 0.000E+00

     total cpu time spent up to now is     3298.4 secs

     total energy              =    -249.18837116 Ry
     Harris-Foulkes estimate   =    -249.18990089 Ry
     estimated scf accuracy    <       0.00986142 Ry

     iteration # 12     ecut=    80.00 Ry     beta=0.30
     Davidson diagonalization with overlap
     ethr =  1.44E-05,  avg # of iterations =  3.0

     negative rho (up, down):  8.114E-03 0.000E+00

     total cpu time spent up to now is     3575.7 secs

     total energy              =    -249.18985804 Ry
     Harris-Foulkes estimate   =    -249.18966279 Ry
     estimated scf accuracy    <       0.00614903 Ry

     iteration # 13     ecut=    80.00 Ry     beta=0.30
     Davidson diagonalization with overlap
     ethr =  1.02E-05,  avg # of iterations =  1.0

     negative rho (up, down):  1.778E-03 0.000E+00

     total cpu time spent up to now is     3804.8 secs

     total energy              =    -249.18841326 Ry
     Harris-Foulkes estimate   =    -249.18993730 Ry
     estimated scf accuracy    <       0.01198472 Ry

     iteration # 14     ecut=    80.00 Ry     beta=0.30
     Davidson diagonalization with overlap
     ethr =  1.02E-05,  avg # of iterations =  2.6

     negative rho (up, down):  2.000E-03 0.000E+00

     total cpu time spent up to now is     4083.7 secs

     total energy              =    -249.18937288 Ry
     Harris-Foulkes estimate   =    -249.18961152 Ry
     estimated scf accuracy    <       0.00316957 Ry

     iteration # 15     ecut=    80.00 Ry     beta=0.30
     Davidson diagonalization with overlap
     ethr =  5.28E-06,  avg # of iterations =  1.2

     negative rho (up, down):  2.216E-03 0.000E+00

     total cpu time spent up to now is     4315.4 secs

     total energy              =    -249.18951183 Ry
     Harris-Foulkes estimate   =    -249.18943750 Ry
     estimated scf accuracy    <       0.00080324 Ry

     iteration # 16     ecut=    80.00 Ry     beta=0.30
     Davidson diagonalization with overlap
     ethr =  1.34E-06,  avg # of iterations =  1.2

     negative rho (up, down):  9.520E-04 0.000E+00

     total cpu time spent up to now is     4547.4 secs

     total energy              =    -249.18916105 Ry
     Harris-Foulkes estimate   =    -249.18952479 Ry
     estimated scf accuracy    <       0.00142299 Ry

     iteration # 17     ecut=    80.00 Ry     beta=0.30
     Davidson diagonalization with overlap
     ethr =  1.34E-06,  avg # of iterations =  3.2

     negative rho (up, down):  2.000E-04 0.000E+00

     total cpu time spent up to now is     4849.4 secs

     total energy              =    -249.18936773 Ry
     Harris-Foulkes estimate   =    -249.18945903 Ry
     estimated scf accuracy    <       0.00131365 Ry

     iteration # 18     ecut=    80.00 Ry     beta=0.30
     Davidson diagonalization with overlap
     ethr =  1.34E-06,  avg # of iterations =  2.2

     negative rho (up, down):  1.529E-04 0.000E+00

     total cpu time spent up to now is     5090.6 secs

     total energy              =    -249.18939928 Ry
     Harris-Foulkes estimate   =    -249.18939981 Ry
     estimated scf accuracy    <       0.00017063 Ry

     iteration # 19     ecut=    80.00 Ry     beta=0.30
     Davidson diagonalization with overlap
     ethr =  2.84E-07,  avg # of iterations =  1.0

     negative rho (up, down):  1.502E-04 0.000E+00

     total cpu time spent up to now is     5320.6 secs

     total energy              =    -249.18938651 Ry
     Harris-Foulkes estimate   =    -249.18940113 Ry
     estimated scf accuracy    <       0.00016647 Ry

     iteration # 20     ecut=    80.00 Ry     beta=0.30
     Davidson diagonalization with overlap
     ethr =  2.77E-07,  avg # of iterations =  2.0

     negative rho (up, down):  1.578E-04 0.000E+00

     total cpu time spent up to now is     5563.0 secs

     total energy              =    -249.18939339 Ry
     Harris-Foulkes estimate   =    -249.18939400 Ry
     estimated scf accuracy    <       0.00000641 Ry

     iteration # 21     ecut=    80.00 Ry     beta=0.30
     Davidson diagonalization with overlap
     ethr =  1.07E-08,  avg # of iterations =  3.2

     negative rho (up, down):  6.335E-06 0.000E+00

     total cpu time spent up to now is     5844.2 secs

     End of self-consistent calculation

          k = 0.0000 0.0000 0.0000 ( 47879 PWs)   bands (ev):

    -8.5664  -8.3035  -7.8810  -7.2947  -6.5451  -5.6465  -4.6080  -3.4327
    -2.1308  -0.6345  -0.2867  -0.2867  -0.0448  -0.0448   0.1651   0.3438
     0.3438   0.8846   0.8846   1.0764   1.0764   1.3272   1.3272   1.5802
     1.5802   1.7254   1.7254   2.2587   2.2587   2.2883   2.4191   2.4191
     3.0599   3.0599   3.3961   3.3961

          k = 0.0000 0.0625 0.0000 ( 47817 PWs)   bands (ev):

    -8.5306  -8.2678  -7.8454  -7.2592  -6.5097  -5.6114  -4.5731  -3.3980
    -2.0965  -0.8583  -0.6117  -0.6003  -0.2538  -0.2162  -0.0119   0.1982
     0.3324   0.3766   0.9175   1.0304   1.1111   1.3656   1.6130   1.7093
     1.7129   1.9180   1.9767   2.2519   2.3215   2.4048   2.4519   2.7906
     2.9223   3.2269   3.4289   3.5480

          k = 0.0000 0.1250 0.0000 ( 47819 PWs)   bands (ev):

    -8.4234  -8.1607  -7.7386  -7.1528  -6.4038  -5.5061  -4.4684  -3.2941
    -1.9935  -1.7622  -1.5120  -1.1107  -0.5541  -0.4979  -0.1554   0.0865
     0.1564   0.2976   0.4751   0.9978   1.0159   1.2162   1.4532   1.7114
     1.8839   1.9754   2.4206   2.5307   2.5503   2.7967   3.0186   3.1609
     3.2054   3.4010   3.5272   4.0272

          k = 0.0000 0.1875 0.0000 ( 47794 PWs)   bands (ev):

    -8.2448  -7.9824  -7.5607  -6.9756  -6.2274  -5.3307  -4.2942  -3.1212
    -2.6607  -2.4082  -2.0030  -1.8221  -1.4408  -0.7224  -0.3275   0.0087
     0.1362   0.2506   0.4631   0.6391   1.1097   1.1800   1.3798   1.6578
     1.8755   1.9576   2.4190   2.5845   2.6718   2.7144   3.3638   3.5520
     3.6911   3.9922   4.1120   4.1760

          k = 0.0000 0.2500 0.0000 ( 47832 PWs)   bands (ev):

    -7.9950  -7.7330  -7.3121  -6.7278  -5.9808  -5.0855  -4.0506  -3.5115
    -3.2571  -2.8794  -2.8488  -2.2824  -1.5826  -1.5582  -0.6911  -0.0896
     0.2384   0.3065   0.4803   0.6946   0.8689   1.3937   1.4098   1.6434
     1.8533   2.1053   2.3751   2.7807   2.8104   2.9084   2.9440   3.5973
     3.9205   4.2076   4.3208   4.4159

          k = 0.0000 0.3125 0.0000 ( 47800 PWs)   bands (ev):

    -7.6746  -7.4131  -6.9930  -6.4099  -5.6644  -4.7708  -4.3037  -4.0478
    -3.7380  -3.6371  -3.0671  -2.5693  -2.3382  -1.4651  -1.2754  -0.4577
     0.2151   0.5338   0.6744   0.7758   0.9920   1.1644   1.7052   1.8303
     1.9133   2.3568   2.4006   2.6564   3.0906   3.2064   3.2392   3.4486
     3.6877   3.9296   3.9505   4.1152

          k = 0.0000 0.3750 0.0000 ( 47828 PWs)   bands (ev):

    -7.2839  -7.0231  -6.6040  -6.0224  -5.2787  -5.0330  -4.7759  -4.3873
    -4.3629  -3.7899  -3.3570  -3.0572  -2.1913  -2.1792  -1.1652  -0.9011
    -0.0208   0.5852   0.8950   1.1370   1.2302   1.3549   1.5255   2.0664
     2.2017   2.6301   2.7617   2.8594   2.9976   3.0217   3.2395   3.3957
     3.4194   3.6000   3.6134   3.6278

          k = 0.0000 0.4375 0.0000 ( 47840 PWs)   bands (ev):

    -6.8236  -6.5635  -6.1456  -5.6971  -5.5657  -5.4388  -5.0240  -4.8242
    -4.4484  -3.9354  -3.7123  -2.9082  -2.8302  -1.8110  -1.7462  -0.6591
    -0.4608   0.6106   1.0183   1.3219   1.5639   1.7828   1.9525   2.0227
     2.3732   2.4932   2.6151   2.8239   2.8362   3.0036   3.0541   3.1884
     3.4530   3.5440   3.5443   4.0530

          k = 0.0000-0.5000 0.0000 ( 47822 PWs)   bands (ev):

    -6.2943  -6.2943  -6.0351  -6.0351  -5.6186  -5.6186  -5.0407  -5.0407
    -4.3018  -4.3018  -3.4160  -3.4160  -2.3925  -2.3925  -1.2350  -1.2350
     0.0440   0.0440   1.5082   1.5082   1.8147   1.8147   2.0566   2.0566
     2.2746   2.2746   2.4451   2.4451   2.9858   2.9858   3.2354   3.2354
     3.5317   3.5318   3.6807   3.6807

          k = 0.0625 0.0625 0.0000 ( 47799 PWs)   bands (ev):

    -8.4949  -8.2321  -7.8098  -7.2237  -6.4744  -5.5763  -4.5382  -3.3634
    -2.0622  -0.8249  -0.8249  -0.5785  -0.5785  -0.5662  -0.1832  -0.1832
     0.2313   0.3648   0.3648   1.0709   1.0709   1.7409   1.7409   1.9142
     1.9142   1.9870   1.9870   2.3544   2.3966   2.3966   2.8059   2.8059
     3.0560   3.0560   3.7005   3.7005

          k = 0.0625 0.1250 0.0000 ( 47788 PWs)   bands (ev):

    -8.3876  -8.1250  -7.7030  -7.1173  -6.3685  -5.4710  -4.4336  -3.2595
    -1.9592  -1.7283  -1.4782  -1.0773  -0.7248  -0.5217  -0.4785  -0.4638
    -0.0827   0.1811   0.3306   0.4795   1.0150   1.2125   1.8427   1.9705
     2.0251   2.1574   2.4528   2.4745   2.8271   2.9579   3.0861   3.1080
     3.2346   3.4574   3.7171   3.9841

          k = 0.0625 0.1875 0.0000 ( 47821 PWs)   bands (ev):

    -8.2091  -7.9467  -7.5252  -6.9402  -6.1922  -5.2956  -4.2594  -3.0866
    -2.6265  -2.3740  -1.9690  -1.7879  -1.4073  -0.6906  -0.5578  -0.3109
    -0.2936   0.0570   0.1999   0.4961   0.6295   1.1796   1.3500   1.9959
     2.1907   2.2589   2.2612   2.6146   2.7696   3.1720   3.2590   3.5957
     3.9394   4.0224   4.1283   4.2699

          k = 0.0625 0.2500 0.0000 ( 47839 PWs)   bands (ev):

    -7.9594  -7.6975  -7.2766  -6.6925  -5.9457  -5.0505  -4.0158  -3.4770
    -3.2227  -2.8450  -2.8145  -2.2483  -1.5484  -1.5246  -0.6597  -0.3239
    -0.0827  -0.0559   0.3191   0.3412   0.7275   0.8866   1.4746   1.5829
     2.2441   2.3874   2.4415   2.8315   2.8822   2.9550   3.3998   3.4957
     3.9576   4.0783   4.1215   4.3218

          k = 0.0625 0.3125 0.0000 ( 47799 PWs)   bands (ev):

    -7.6390  -7.3776  -6.9576  -6.3747  -5.6293  -4.7359  -4.2689  -4.0132
    -3.7034  -3.6025  -3.0327  -2.5349  -2.3041  -1.4316  -1.2414  -0.4272
    -0.0256   0.2248   0.2482   0.5706   0.7735   1.0248   1.1772   1.8780
     1.9556   2.5136   2.7249   2.8762   2.9882   3.2480   3.3373   3.3948
     3.4820   3.7445   3.7891   3.7973

          k = 0.0625 0.3750 0.0000 ( 47793 PWs)   bands (ev):

    -7.2485  -6.9877  -6.5686  -5.9872  -5.2437  -4.9981  -4.7410  -4.3525
    -4.3282  -3.7553  -3.3225  -3.0228  -2.1571  -2.1451  -1.1319  -0.8674
     0.0067   0.3443   0.5804   0.6168   0.9981   1.2938   1.3874   1.5414
     2.2381   2.4571   2.6185   2.7133   3.0783   3.0916   3.1074   3.2126
     3.4967   3.5180   3.6116   3.6545

          k = 0.0625 0.4375 0.0000 ( 47840 PWs)   bands (ev):

    -6.7882  -6.5282  -6.1104  -5.6620  -5.5306  -5.4038  -4.9891  -4.7893
    -4.4136  -3.9007  -3.6777  -2.8738  -2.7958  -1.7770  -1.7122  -0.6263
    -0.4277   0.6265   0.7694   1.0427   1.0515   1.4255   1.8140   1.8520
     1.9707   2.0905   2.1101   2.4827   2.6782   2.8586   3.0300   3.3805
     3.5267   3.6374   3.7165   3.8416

          k = 0.0625-0.5000 0.0000 ( 47854 PWs)   bands (ev):

    -6.2591  -6.2591  -5.9999  -5.9999  -5.5836  -5.5836  -5.0058  -5.0058
    -4.2670  -4.2670  -3.3815  -3.3815  -2.3583  -2.3583  -1.2013  -1.2013
     0.0754   0.0754   1.2345   1.2345   1.5305   1.5305   1.5968   1.5968
     1.9214   1.9214   2.3007   2.3007   2.4749   2.4749   3.1699   3.1699
     3.7682   3.7682   4.0151   4.0155

          k = 0.1250 0.1250 0.0000 ( 47769 PWs)   bands (ev):

    -8.2805  -8.0180  -7.5963  -7.0110  -6.2627  -5.3657  -4.3290  -3.1558
    -1.8564  -1.6267  -1.6267  -1.3771  -1.3771  -0.9769  -0.9769  -0.4227
    -0.4227  -0.3617   0.2978   0.2978   0.4299   1.1651   1.1651   2.1404
     2.1404   2.5481   2.9175   2.9175   3.1584   3.1584   3.2345   3.2345
     3.6544   3.6544   4.1306   4.1308

          k = 0.1250 0.1875 0.0000 ( 47760 PWs)   bands (ev):

    -8.1020  -7.8398  -7.4186  -6.8340  -6.0865  -5.1905  -4.1549  -2.9830
    -2.5238  -2.2717  -1.8674  -1.6853  -1.4578  -1.3071  -1.2084  -0.8076
    -0.5996  -0.2340  -0.1920   0.2489   0.5094   0.5951   1.2734   1.3393
     2.2832   2.4274   2.6979   3.0928   3.2617   3.4225   3.7796   3.7812
     3.9269   3.9821   4.1273   4.3096

          k = 0.1250 0.2500 0.0000 ( 47813 PWs)   bands (ev):

    -7.8525  -7.5908  -7.1702  -6.5865  -5.8401  -4.9455  -3.9116  -3.3735
    -3.1195  -2.7416  -2.7117  -2.1463  -1.4462  -1.4252  -1.2209  -0.9710
    -0.6316  -0.4928  -0.0226   0.0447   0.4747   0.7129   0.8263   1.5619
     1.5881   2.5514   2.7999   2.8105   3.2458   3.2810   3.3001   3.6351
     3.6827   3.6926   4.0089   4.2338

          k = 0.1250 0.3125 0.0000 ( 47843 PWs)   bands (ev):

    -7.5324  -7.2712  -6.8514  -6.2689  -5.5240  -4.6312  -4.1648  -3.9093
    -3.5994  -3.4989  -2.9296  -2.4318  -2.2021  -1.3325  -1.1396  -0.9168
    -0.6764  -0.3198  -0.2662   0.3121   0.3465   0.8328   1.0144   1.1230
     1.8482   2.1003   2.2749   2.5416   2.8368   2.9393   3.3153   3.4031
     3.4906   3.8166   3.9123   3.9281

          k = 0.1250 0.3750 0.0000 ( 47819 PWs)   bands (ev):

    -7.1421  -6.8815  -6.4628  -5.8817  -5.1387  -4.8934  -4.6365  -4.2481
    -4.2240  -3.6516  -3.2188  -2.9197  -2.0544  -2.0432  -1.0340  -0.7667
    -0.5489  -0.2945   0.0137   0.2234   0.6714   0.7059   1.3776   1.3948
     1.4839   1.6139   1.8539   2.2320   2.2491   2.8008   2.8155   3.2538
     3.4876   3.5731   3.6673   4.0206

          k = 0.1250 0.4375 0.0000 ( 47791 PWs)   bands (ev):

    -6.6822  -6.4223  -6.0048  -5.5568  -5.4255  -5.2988  -4.8844  -4.6846
    -4.3093  -3.7967  -3.5740  -2.7706  -2.6929  -1.6755  -1.6102  -0.5319
    -0.3295  -0.1078   0.1259   0.5581   0.7779   0.8938   1.1053   1.2262
     1.2354   1.6199   1.8034   1.9060   2.1775   2.2402   2.6419   2.8775
     2.9891   3.6585   3.7288   4.0406

          k = 0.1250-0.5000 0.0000 ( 47842 PWs)   bands (ev):

    -6.1535  -6.1535  -5.8945  -5.8945  -5.4784  -5.4784  -4.9010  -4.9010
    -4.1627  -4.1627  -3.2779  -3.2779  -2.2557  -2.2557  -1.1008  -1.1008
     0.1572   0.1572   0.3850   0.3850   0.6792   0.6792   1.0547   1.0547
     1.6034   1.6034   1.6735   1.6735   2.3193   2.3193   2.4005   2.4005
     3.1748   3.1748   4.1327   4.1327

          k = 0.1875 0.1875 0.0000 ( 47793 PWs)   bands (ev):

    -7.9238  -7.6619  -7.2411  -6.6571  -5.9105  -5.0155  -3.9811  -2.8105
    -2.3530  -2.3530  -2.1015  -2.1015  -1.6981  -1.6981  -1.5145  -1.1396
    -1.1396  -0.4114  -0.4114  -0.0233   0.4631   0.4631   0.7601   1.4499
     1.4499   2.5736   2.5736   2.7349   3.2017   3.2318   3.6455   3.7975
     3.7975   4.1867   4.2731   4.2731

          k = 0.1875 0.2500 0.0000 ( 47795 PWs)   bands (ev):

    -7.6746  -7.4131  -6.9930  -6.4099  -5.6644  -4.7709  -3.7381  -3.2013
    -2.9477  -2.5695  -2.5409  -2.1146  -1.9772  -1.8632  -1.4594  -1.2760
    -1.2654  -0.8805  -0.4076  -0.1356   0.2109   0.6199   0.7044   0.9906
     1.6465   1.8013   2.1639   2.4342   2.7691   2.8332   3.0572   3.1965
     3.3860   3.9942   4.0955   4.3664

          k = 0.1875 0.3125 0.0000 ( 47802 PWs)   bands (ev):

    -7.3549  -7.0939  -6.6746  -6.0927  -5.3487  -4.4569  -3.9915  -3.7362
    -3.4263  -3.3265  -2.7583  -2.2603  -2.0336  -1.8077  -1.5560  -1.2263
    -1.0835  -0.9706  -0.6008  -0.1234   0.1388   0.5031   0.9931   0.9985
     1.2854   1.4419   1.6828   1.9892   2.0794   2.2530   2.6329   3.1215
     3.3179   3.4922   3.6736   4.1830

          k = 0.1875 0.3750 0.0000 ( 47823 PWs)   bands (ev):

    -6.9650  -6.7047  -6.2864  -5.7060  -4.9638  -4.7191  -4.4625  -4.0743
    -4.0505  -3.4789  -3.0463  -2.7484  -1.8837  -1.8751  -1.4336  -1.1927
    -0.8558  -0.7785  -0.6004  -0.1978   0.3002   0.5099   0.6429   0.9796
     0.9886   1.3435   1.3837   1.5848   1.6416   1.9436   2.3394   2.6457
     3.0484   3.4275   3.4998   3.8274

          k = 0.1875 0.4375 0.0000 ( 47828 PWs)   bands (ev):

    -6.5057  -6.2461  -5.8291  -5.3817  -5.2504  -5.1239  -4.7100  -4.5104
    -4.1357  -3.6235  -3.4013  -2.5989  -2.5217  -1.5088  -1.4412  -0.9960
    -0.7398  -0.4428  -0.2329  -0.1792   0.0759   0.2315   0.3729   0.7504
     0.9317   0.9413   1.3011   1.3437   1.8001   2.0209   2.0709   2.3739
     2.8332   2.8801   3.1168   3.8418

          k = 0.1875-0.5000 0.0000 ( 47810 PWs)   bands (ev):

    -5.9776  -5.9776  -5.7189  -5.7189  -5.3033  -5.3033  -4.7266  -4.7266
    -3.9892  -3.9892  -3.1056  -3.1056  -2.0853  -2.0853  -0.9378  -0.9378
    -0.4852  -0.4852  -0.2514  -0.2514   0.1847   0.1847   0.3786   0.3786
     0.7348   0.7348   1.4338   1.4338   1.8524   1.8524   2.2724   2.2724
     2.6020   2.6020   3.3005   3.3005

          k = 0.2500 0.2500 0.0000 ( 47859 PWs)   bands (ev):

    -7.4259  -7.1648  -6.7453  -6.1632  -5.4188  -4.5266  -3.4955  -2.9606
    -2.9606  -2.7078  -2.7078  -2.3290  -2.3021  -2.3021  -1.7403  -1.7403
    -1.0387  -1.0074  -1.0074  -0.1306  -0.1306   0.4354   0.8626   0.8626
     1.2193   1.3821   1.6233   1.9954   1.9954   2.0202   2.5743   3.2497
     3.2497   3.2586   3.4308   4.1254

          k = 0.2500 0.3125 0.0000 ( 47856 PWs)   bands (ev):

    -7.1067  -6.8461  -6.4275  -5.8465  -5.1037  -4.2133  -3.7492  -3.4945
    -3.1844  -3.0859  -2.6523  -2.5195  -2.3996  -2.0207  -1.9936  -1.8040
    -1.4121  -0.9389  -0.7361  -0.6688   0.0860   0.1811   0.5146   0.8490
     0.8648   1.1212   1.2606   1.2812   1.5092   1.8214   2.2516   2.5245
     2.5475   3.3799   3.4923   3.6933

          k = 0.2500 0.3750 0.0000 ( 47843 PWs)   bands (ev):

    -6.7175  -6.4575  -6.0399  -5.4605  -4.7195  -4.4755  -4.2193  -3.8314
    -3.8081  -3.2378  -2.8053  -2.5104  -2.2753  -2.0225  -1.6951  -1.6459
    -1.5526  -1.0616  -0.5960  -0.3814  -0.3218  -0.1155   0.1817   0.5320
     0.5366   0.5606   1.1124   1.1432   1.5371   1.7938   1.8343   1.8727
     2.6744   2.6952   3.2362   3.6575

          k = 0.2500 0.4375 0.0000 ( 47865 PWs)   bands (ev):

    -6.2589  -5.9997  -5.5834  -5.1368  -5.0056  -4.8795  -4.4663  -4.2669
    -3.8930  -3.3816  -3.1603  -2.3593  -2.2842  -1.8314  -1.5896  -1.2608
    -1.2092  -1.1734  -0.7446  -0.5928  -0.5100  -0.1041  -0.0733   0.1093
     0.1192   0.4788   0.9529   1.1783   1.1893   1.5880   1.9536   2.0176
     2.3415   2.6630   3.0417   3.0513

          k = 0.2500-0.5000 0.0000 ( 47812 PWs)   bands (ev):

    -5.7317  -5.7317  -5.4734  -5.4734  -5.0585  -5.0585  -4.4828  -4.4828
    -3.7467  -3.7467  -2.8650  -2.8650  -1.8493  -1.8493  -1.3243  -1.3243
    -1.0672  -1.0672  -0.7725  -0.7725  -0.5676  -0.5676  -0.0935  -0.0935
     0.5969   0.5969   0.6189   0.6189   1.4804   1.4804   2.0444   2.0444
     2.5183   2.5183   2.7882   2.7882

          k = 0.3125 0.3125 0.0000 ( 47893 PWs)   bands (ev):

    -6.7881  -6.5281  -6.1103  -5.5306  -4.7892  -3.9007  -3.4384  -3.4384
    -3.1846  -3.1846  -2.8742  -2.7772  -2.7772  -2.2129  -2.2129  -1.7142
    -1.4770  -1.4770  -0.5997  -0.5997  -0.4488  -0.1800   0.1172   0.3984
     0.3984   0.4965   1.0487   1.0761   1.5363   1.5363   1.7712   1.8066
     2.6327   2.7975   2.7975   3.5952

          k = 0.3125 0.3750 0.0000 ( 47901 PWs)   bands (ev):

    -6.3998  -6.1404  -5.7236  -5.1454  -4.4059  -4.1628  -3.9073  -3.5198
    -3.4974  -3.0599  -2.9291  -2.8064  -2.4965  -2.3988  -2.2107  -1.8160
    -1.3452  -1.3400  -1.0751  -0.8759  -0.6407  -0.3187  -0.2169  -0.2041
    -0.0260   0.3490   0.7219   0.8858   1.0489   1.4548   1.8571   1.8885
     2.1564   2.2107   2.9247   3.1031

          k = 0.3125 0.4375 0.0000 ( 47892 PWs)   bands (ev):

    -5.9422  -5.6836  -5.2681  -4.8227  -4.6916  -4.5659  -4.1537  -3.9545
    -3.5820  -3.0715  -2.8526  -2.6131  -2.3595  -2.0541  -2.0320  -1.8913
    -1.5236  -1.3944  -1.2660  -0.9712  -0.9363  -0.7709  -0.6555  -0.2912
     0.1963   0.2059   0.3950   0.4226   1.2094   1.2858   1.4619   1.8448
     2.3260   2.3498   2.5904   2.9102

          k = 0.3125-0.5000 0.0000 ( 47848 PWs)   bands (ev):

    -5.4162  -5.4162  -5.1584  -5.1584  -4.7444  -4.7444  -4.1700  -4.1700
    -3.4359  -3.4359  -2.5580  -2.5580  -2.0996  -2.0996  -1.8570  -1.8570
    -1.5320  -1.5320  -1.4397  -1.4397  -0.8598  -0.8598  -0.3753  -0.3753
    -0.1448  -0.1448   0.6889   0.6889   0.9235   0.9235   1.6926   1.6926
     2.4006   2.4006   2.7815   2.7815

          k = 0.3750 0.3750 0.0000 ( 47894 PWs)   bands (ev):

    -6.0125  -5.7537  -5.3380  -4.7612  -4.0238  -3.7818  -3.7818  -3.5273
    -3.5273  -3.1404  -3.1187  -3.1187  -2.5527  -2.5527  -2.1225  -1.8149
    -1.8149  -1.5903  -1.3325  -1.0376  -0.9376  -0.9376  -0.8390  -0.3574
     0.0639   0.0639   0.3276   0.3568   1.2050   1.2050   1.2205   1.7780
     2.2614   2.4702   2.4702   2.5245

          k = 0.3750 0.4375 0.0000 ( 47880 PWs)   bands (ev):

    -5.5562  -5.2981  -4.8838  -4.4397  -4.3088  -4.1837  -3.7729  -3.5739
    -3.3333  -3.2034  -3.0792  -2.6951  -2.6707  -2.4829  -2.2344  -2.0871
    -1.9914  -1.6680  -1.6085  -1.5737  -1.3482  -0.9941  -0.5902  -0.5113
    -0.4841  -0.2777   0.4537   0.5561   0.6203   0.7900   1.5613   1.5920
     1.8933   2.2685   2.6508   2.8410

          k = 0.3750-0.5000 0.0000 ( 47954 PWs)   bands (ev):

    -5.0316  -5.0316  -4.7745  -4.7745  -4.3616  -4.3616  -3.7890  -3.7890
    -3.0585  -3.0585  -2.8169  -2.8169  -2.5628  -2.5628  -2.2348  -2.2348
    -2.0957  -2.0957  -1.5952  -1.5952  -1.1414  -1.1414  -0.8571  -0.8571
    -0.0060  -0.0060   0.0060   0.0060   1.0112   1.0112   1.2618   1.2618
     2.1535   2.1535   2.7126   2.7126

          k = 0.4375 0.4375 0.0000 ( 47946 PWs)   bands (ev):

    -5.1013  -4.8441  -4.4310  -3.9886  -3.9886  -3.8582  -3.7336  -3.7336
    -3.3244  -3.3244  -3.1272  -2.8850  -2.7573  -2.7573  -2.6308  -2.3025
    -2.1640  -2.0186  -2.0186  -1.6623  -1.2099  -1.1414  -1.1414  -0.9245
    -0.1377  -0.1377  -0.0736  -0.0609   0.9449   1.0053   1.0053   1.1949
     2.0878   2.2725   2.2725   2.6465

          k = 0.4375-0.5000 0.0000 ( 47970 PWs)   bands (ev):

    -4.5784  -4.5784  -4.3222  -4.3222  -3.9110  -3.9110  -3.4705  -3.4705
    -3.3408  -3.3408  -3.2160  -3.2160  -2.8070  -2.8070  -2.6194  -2.6194
    -2.2232  -2.2232  -1.7431  -1.7431  -1.4853  -1.4853  -0.7264  -0.7264
    -0.6182  -0.6182   0.3191   0.3191   0.4871   0.4871   1.4590   1.4590
     1.7612   1.7612   2.7094   2.7094

          k =-0.5000-0.5000 0.0000 ( 47904 PWs)   bands (ev):

    -4.0576  -4.0576  -4.0576  -4.0576  -3.8025  -3.8025  -3.8025  -3.8025
    -3.3931  -3.3931  -3.3931  -3.3931  -2.8256  -2.8256  -2.8256  -2.8256
    -2.0866  -2.0866  -2.0866  -2.0866  -1.2094  -1.2094  -1.2094  -1.2094
    -0.2051  -0.2051  -0.2051  -0.2051   0.9385   0.9385   0.9385   0.9385
     2.2064   2.2064   2.2064   2.2064

     the Fermi energy is     2.5994 ev

!    total energy              =    -249.18939335 Ry
     Harris-Foulkes estimate   =    -249.18939446 Ry
     estimated scf accuracy    <       0.00000038 Ry

     The total energy is the sum of the following terms:

     one-electron contribution =   -1701.98225247 Ry
     hartree contribution      =     869.03533430 Ry
     xc contribution           =    -200.28249430 Ry
     ewald contribution        =     784.04069261 Ry
     smearing contrib. (-TS)   =      -0.00067349 Ry

     convergence has been achieved in  21 iterations

     Forces acting on atoms (Ry/au):


     negative rho (up, down):  6.335E-06 0.000E+00
     atom    1 type  1   force =     0.00000000    0.00000000   -0.00321431
     atom    2 type  1   force =     0.00000000    0.00000000   -0.00321397
     atom    3 type  1   force =     0.00000000    0.00000000    0.00216821
     atom    4 type  1   force =     0.00000000    0.00000000    0.00216821
     atom    5 type  1   force =     0.00000000    0.00000000    0.00083608
     atom    6 type  1   force =     0.00000000    0.00000000    0.00083619
     atom    7 type  1   force =     0.00000000    0.00000000    0.00095101
     atom    8 type  1   force =     0.00000000    0.00000000    0.00095101
     atom    9 type  1   force =     0.00000000    0.00000000    0.00027795
     atom   10 type  1   force =     0.00000000    0.00000000    0.00027785
     atom   11 type  1   force =     0.00000000    0.00000000   -0.00027745
     atom   12 type  1   force =     0.00000000    0.00000000   -0.00027745
     atom   13 type  1   force =     0.00000000    0.00000000   -0.00095209
     atom   14 type  1   force =     0.00000000    0.00000000   -0.00095196
     atom   15 type  1   force =     0.00000000    0.00000000   -0.00083628
     atom   16 type  1   force =     0.00000000    0.00000000   -0.00083628
     atom   17 type  1   force =     0.00000000    0.00000000   -0.00216748
     atom   18 type  1   force =     0.00000000    0.00000000   -0.00216783
     atom   19 type  1   force =     0.00000000    0.00000000    0.00321429
     atom   20 type  1   force =     0.00000000    0.00000000    0.00321429

     Total force =     0.008176     Total SCF correction =     0.000779


     entering subroutine stress ...


     negative rho (up, down):  6.335E-06 0.000E+00
          total   stress  (Ry/bohr**3)                   (kbar)     P=   -4.73
  -0.00005436   0.00000000   0.00000000         -8.00      0.00      0.00
   0.00000000  -0.00005436   0.00000000          0.00     -8.00      0.00
   0.00000000   0.00000000   0.00001232          0.00      0.00      1.81


     BFGS Geometry Optimization

     number of scf cycles    =   1
     number of bfgs steps    =   0

     energy   new            =    -249.1893933516 Ry

     new trust radius        =       0.0032143144 bohr
     new conv_thr            =       0.0000010000 Ry


ATOMIC_POSITIONS (crystal)
Al       0.000000000   0.000000000  -0.000046962
Al       0.500000000   0.500000000  -0.000046957
Al       0.500000000   0.000000000   0.055587234
Al       0.000000000   0.500000000   0.055587234
Al       0.000000000   0.000000000   0.111123327
Al       0.500000000   0.500000000   0.111123328
Al       0.500000000   0.000000000   0.166680561
Al       0.000000000   0.500000000   0.166680561
Al       0.000000000   0.000000000   0.222226283
Al       0.500000000   0.500000000   0.222226282
Al       0.500000000   0.000000000   0.277773724
Al       0.000000000   0.500000000   0.277773724
Al       0.000000000   0.000000000   0.333319423
Al       0.500000000   0.500000000   0.333319425
Al       0.500000000   0.000000000   0.388876671
Al       0.000000000   0.500000000   0.388876671
Al       0.000000000   0.000000000   0.444412777
Al       0.500000000   0.500000000   0.444412772
Al       0.500000000   0.000000000   0.500046962
Al       0.000000000   0.500000000   0.500046962



     Writing output data file Al_100_5_4.save
     NEW-OLD atomic charge density approx. for the potential

     negative rho (up, down):  6.189E-06 0.000E+00

     total cpu time spent up to now is     5984.3 secs

     per-process dynamical memory:  1372.4 Mb

     Self-consistent Calculation

     iteration #  1     ecut=    80.00 Ry     beta=0.30
     Davidson diagonalization with overlap
     ethr =  1.00E-06,  avg # of iterations =  2.0

     negative rho (up, down):  4.197E-06 0.000E+00

     total cpu time spent up to now is     6311.1 secs

     total energy              =    -249.18945980 Ry
     Harris-Foulkes estimate   =    -249.18946281 Ry
     estimated scf accuracy    <       0.00019400 Ry

     iteration #  2     ecut=    80.00 Ry     beta=0.30
     Davidson diagonalization with overlap
     ethr =  3.23E-07,  avg # of iterations =  1.2

     negative rho (up, down):  7.318E-07 0.000E+00

     total cpu time spent up to now is     6552.2 secs

     total energy              =    -249.18945035 Ry
     Harris-Foulkes estimate   =    -249.18946132 Ry
     estimated scf accuracy    <       0.00013057 Ry

     iteration #  3     ecut=    80.00 Ry     beta=0.30
     Davidson diagonalization with overlap
     ethr =  2.18E-07,  avg # of iterations =  1.6

     negative rho (up, down):  1.316E-06 0.000E+00

     total cpu time spent up to now is     6804.6 secs

     total energy              =    -249.18945669 Ry
     Harris-Foulkes estimate   =    -249.18945800 Ry
     estimated scf accuracy    <       0.00002325 Ry

     iteration #  4     ecut=    80.00 Ry     beta=0.30
     Davidson diagonalization with overlap
     ethr =  3.87E-08,  avg # of iterations =  1.6

     negative rho (up, down):  1.495E-06 0.000E+00

     total cpu time spent up to now is     7040.4 secs

     total energy              =    -249.18945742 Ry
     Harris-Foulkes estimate   =    -249.18945746 Ry
     estimated scf accuracy    <       0.00000145 Ry

     iteration #  5     ecut=    80.00 Ry     beta=0.30
     Davidson diagonalization with overlap
     ethr =  2.42E-09,  avg # of iterations =  3.0

     negative rho (up, down):  6.327E-06 0.000E+00

     total cpu time spent up to now is     7292.6 secs

     End of self-consistent calculation

          k = 0.0000 0.0000 0.0000 ( 47879 PWs)   bands (ev):

    -8.5679  -8.3040  -7.8805  -7.2931  -6.5437  -5.6470  -4.6098  -3.4348
    -2.1329  -0.6372  -0.2881  -0.2881  -0.0452  -0.0452   0.1625   0.3445
     0.3445   0.8866   0.8866   1.0750   1.0750   1.3267   1.3267   1.5820
     1.5820   1.7257   1.7257   2.2594   2.2594   2.2866   2.4189   2.4189
     3.0622   3.0622   3.3942   3.3942

          k = 0.0000 0.0625 0.0000 ( 47817 PWs)   bands (ev):

    -8.5321  -8.2683  -7.8448  -7.2576  -6.5083  -5.6119  -4.5749  -3.4002
    -2.0986  -0.8598  -0.6122  -0.6030  -0.2553  -0.2156  -0.0124   0.1956
     0.3341   0.3773   0.9194   1.0320   1.1096   1.3650   1.6148   1.7078
     1.7127   1.9187   1.9759   2.2535   2.3197   2.4047   2.4517   2.7910
     2.9205   3.2294   3.4270   3.5501

          k = 0.0000 0.1250 0.0000 ( 47819 PWs)   bands (ev):

    -8.4248  -8.1612  -7.7380  -7.1512  -6.4024  -5.5065  -4.4702  -3.2963
    -1.9956  -1.7637  -1.5125  -1.1101  -0.5524  -0.5006  -0.1569   0.0860
     0.1580   0.2950   0.4757   0.9974   1.0178   1.2147   1.4524   1.7133
     1.8846   1.9746   2.4189   2.5314   2.5501   2.7951   3.0182   3.1594
     3.2052   3.4009   3.5253   4.0278

          k = 0.0000 0.1875 0.0000 ( 47794 PWs)   bands (ev):

    -8.2462  -7.9829  -7.5602  -6.9740  -6.2260  -5.3311  -4.2960  -3.1233
    -2.6622  -2.4087  -2.0024  -1.8242  -1.4391  -0.7209  -0.3302   0.0072
     0.1358   0.2501   0.4605   0.6398   1.1079   1.1819   1.3782   1.6575
     1.8774   1.9578   2.4173   2.5828   2.6731   2.7141   3.3648   3.5499
     3.6892   3.9907   4.1088   4.1752

          k = 0.0000 0.2500 0.0000 ( 47832 PWs)   bands (ev):

    -7.9965  -7.7335  -7.3115  -6.7262  -5.9794  -5.0859  -4.0524  -3.5129
    -3.2576  -2.8816  -2.8483  -2.2807  -1.5846  -1.5567  -0.6915  -0.0923
     0.2369   0.3048   0.4799   0.6920   0.8696   1.3917   1.4117   1.6421
     1.8528   2.1071   2.3753   2.7787   2.8086   2.9098   2.9437   3.5982
     3.9186   4.2054   4.3178   4.4153

          k = 0.0000 0.3125 0.0000 ( 47800 PWs)   bands (ev):

    -7.6761  -7.4136  -6.9924  -6.4083  -5.6630  -4.7713  -4.3051  -4.0483
    -3.7398  -3.6365  -3.0654  -2.5714  -2.3368  -1.4655  -1.2774  -0.4595
     0.2124   0.5323   0.6723   0.7753   0.9894   1.1650   1.7072   1.8287
     1.9118   2.3558   2.4025   2.6568   3.0889   3.2077   3.2390   3.4461
     3.6862   3.9291   3.9516   4.1128

          k = 0.0000 0.3750 0.0000 ( 47828 PWs)   bands (ev):

    -7.2854  -7.0236  -6.6034  -6.0207  -5.2773  -5.0345  -4.7764  -4.3877
    -4.3624  -3.7883  -3.3588  -3.0558  -2.1935  -2.1796  -1.1670  -0.9032
    -0.0229   0.5825   0.8935   1.1365   1.2282   1.3523   1.5262   2.0683
     2.2000   2.6296   2.7635   2.8569   2.9961   3.0222   3.2390   3.3939
     3.4175   3.5998   3.6142   3.6285

          k = 0.0000 0.4375 0.0000 ( 47840 PWs)   bands (ev):

    -6.8251  -6.5640  -6.1451  -5.6986  -5.5641  -5.4393  -5.0235  -4.8228
    -4.4468  -3.9358  -3.7109  -2.9100  -2.8306  -1.8127  -1.7484  -0.6612
    -0.4629   0.6086   1.0156   1.3204   1.5634   1.7803   1.9531   2.0203
     2.3717   2.4952   2.6147   2.8215   2.8345   3.0043   3.0535   3.1902
     3.4535   3.5425   3.5460   4.0525

          k = 0.0000-0.5000 0.0000 ( 47822 PWs)   bands (ev):

    -6.2958  -6.2958  -6.0356  -6.0356  -5.6181  -5.6181  -5.0391  -5.0391
    -4.3003  -4.3003  -3.4165  -3.4165  -2.3943  -2.3943  -1.2371  -1.2371
     0.0420   0.0420   1.5056   1.5056   1.8132   1.8132   2.0562   2.0562
     2.2721   2.2721   2.4458   2.4458   2.9877   2.9877   3.2337   3.2337
     3.5312   3.5312   3.6826   3.6826

          k = 0.0625 0.0625 0.0000 ( 47799 PWs)   bands (ev):

    -8.4964  -8.2326  -7.8092  -7.2221  -6.4730  -5.5767  -4.5400  -3.3655
    -2.0642  -0.8264  -0.8264  -0.5790  -0.5790  -0.5689  -0.1826  -0.1826
     0.2287   0.3666   0.3666   1.0726   1.0727   1.7395   1.7395   1.9138
     1.9138   1.9865   1.9865   2.3527   2.3973   2.3973   2.8057   2.8057
     3.0553   3.0553   3.7026   3.7026

          k = 0.0625 0.1250 0.0000 ( 47788 PWs)   bands (ev):

    -8.3891  -8.1255  -7.7024  -7.1157  -6.3671  -5.4714  -4.4354  -3.2617
    -1.9613  -1.7298  -1.4787  -1.0767  -0.7263  -0.5200  -0.4790  -0.4665
    -0.0821   0.1825   0.3281   0.4814   1.0153   1.2136   1.8412   1.9687
     2.0249   2.1571   2.4511   2.4751   2.8256   2.9561   3.0874   3.1074
     3.2325   3.4575   3.7177   3.9810

          k = 0.0625 0.1875 0.0000 ( 47821 PWs)   bands (ev):

    -8.2105  -7.9472  -7.5246  -6.9385  -6.1908  -5.2961  -4.2611  -3.0888
    -2.6280  -2.3745  -1.9684  -1.7900  -1.4056  -0.6891  -0.5593  -0.3114
    -0.2963   0.0572   0.2001   0.4935   0.6313   1.1779   1.3516   1.9942
     2.1905   2.2575   2.2607   2.6128   2.7695   3.1702   3.2604   3.5937
     3.9405   4.0208   4.1253   4.2680

          k = 0.0625 0.2500 0.0000 ( 47839 PWs)   bands (ev):

    -7.9609  -7.6980  -7.2760  -6.6909  -5.9443  -5.0509  -4.0176  -3.4784
    -3.2232  -2.8471  -2.8140  -2.2467  -1.5505  -1.5231  -0.6601  -0.3254
    -0.0833  -0.0586   0.3198   0.3397   0.7249   0.8882   1.4725   1.5845
     2.2427   2.3868   2.4409   2.8298   2.8806   2.9554   3.3980   3.4972
     3.9561   4.0775   4.1210   4.3210

          k = 0.0625 0.3125 0.0000 ( 47799 PWs)   bands (ev):

    -7.6405  -7.3781  -6.9570  -6.3730  -5.6279  -4.7364  -4.2704  -4.0137
    -3.7051  -3.6019  -3.0310  -2.5371  -2.3027  -1.4320  -1.2435  -0.4289
    -0.0271   0.2244   0.2455   0.5707   0.7720   1.0222   1.1790   1.8797
     1.9537   2.5121   2.7246   2.8757   2.9865   3.2484   3.3358   3.3943
     3.4795   3.7426   3.7905   3.7980

          k = 0.0625 0.3750 0.0000 ( 47793 PWs)   bands (ev):

    -7.2499  -6.9882  -6.5681  -5.9856  -5.2423  -4.9996  -4.7415  -4.3529
    -4.3276  -3.7537  -3.3242  -3.0214  -2.1592  -2.1455  -1.1337  -0.8695
     0.0046   0.3428   0.5799   0.6141   0.9987   1.2918   1.3848   1.5432
     2.2397   2.4555   2.6164   2.7129   3.0779   3.0897   3.1081   3.2121
     3.4943   3.5163   3.6121   3.6564

          k = 0.0625 0.4375 0.0000 ( 47840 PWs)   bands (ev):

    -6.7897  -6.5287  -6.1099  -5.6635  -5.5290  -5.4043  -4.9886  -4.7879
    -4.4120  -3.9012  -3.6763  -2.8756  -2.7962  -1.7788  -1.7143  -0.6284
    -0.4297   0.6246   0.7679   1.0401   1.0509   1.4262   1.8115   1.8504
     1.9725   2.0901   2.1075   2.4833   2.6799   2.8561   3.0319   3.3789
     3.5264   3.6369   3.7178   3.8403

          k = 0.0625-0.5000 0.0000 ( 47854 PWs)   bands (ev):

    -6.2606  -6.2606  -6.0004  -6.0004  -5.5830  -5.5830  -5.0042  -5.0042
    -4.2656  -4.2656  -3.3819  -3.3819  -2.3600  -2.3600  -1.2034  -1.2034
     0.0734   0.0734   1.2329   1.2329   1.5300   1.5300   1.5942   1.5942
     1.9221   1.9221   2.2983   2.2983   2.4766   2.4766   3.1716   3.1716
     3.7665   3.7665   4.0148   4.0151

          k = 0.1250 0.1250 0.0000 ( 47769 PWs)   bands (ev):

    -8.2819  -8.0185  -7.5957  -7.0094  -6.2613  -5.3662  -4.3308  -3.1579
    -1.8585  -1.6282  -1.6282  -1.3776  -1.3776  -0.9763  -0.9763  -0.4211
    -0.4210  -0.3644   0.2995   0.2995   0.4273   1.1647   1.1647   2.1386
     2.1386   2.5464   2.9159   2.9159   3.1582   3.1582   3.2328   3.2328
     3.6543   3.6543   4.1316   4.1319

          k = 0.1250 0.1875 0.0000 ( 47760 PWs)   bands (ev):

    -8.1035  -7.8403  -7.4180  -6.8323  -6.0851  -5.1910  -4.1567  -2.9852
    -2.5253  -2.2722  -1.8668  -1.6873  -1.4593  -1.3054  -1.2089  -0.8071
    -0.5983  -0.2321  -0.1947   0.2492   0.5104   0.5926   1.2717   1.3390
     2.2812   2.4256   2.6962   3.0913   3.2609   3.4204   3.7778   3.7817
     3.9254   3.9810   4.1259   4.3111

          k = 0.1250 0.2500 0.0000 ( 47813 PWs)   bands (ev):

    -7.8540  -7.5913  -7.1696  -6.5848  -5.8387  -4.9460  -3.9134  -3.3750
    -3.1200  -2.7437  -2.7112  -2.1447  -1.4482  -1.4237  -1.2224  -0.9715
    -0.6319  -0.4922  -0.0208   0.0420   0.4730   0.7144   0.8237   1.5615
     1.5860   2.5497   2.7982   2.8086   3.2443   3.2806   3.2986   3.6340
     3.6810   3.6933   4.0095   4.2355

          k = 0.1250 0.3125 0.0000 ( 47843 PWs)   bands (ev):

    -7.5339  -7.2717  -6.8509  -6.2673  -5.5226  -4.6317  -4.1663  -3.9098
    -3.6012  -3.4984  -2.9280  -2.4340  -2.2006  -1.3329  -1.1417  -0.9183
    -0.6771  -0.3213  -0.2655   0.3137   0.3438   0.8307   1.0159   1.1204
     1.8477   2.0985   2.2733   2.5412   2.8351   2.9399   3.3138   3.4011
     3.4924   3.8146   3.9118   3.9261

          k = 0.1250 0.3750 0.0000 ( 47819 PWs)   bands (ev):

    -7.1436  -6.8820  -6.4622  -5.8801  -5.1373  -4.8949  -4.6370  -4.2485
    -4.2234  -3.6500  -3.2206  -2.9183  -2.0566  -2.0436  -1.0358  -0.7687
    -0.5505  -0.2949   0.0132   0.2224   0.6731   0.7033   1.3792   1.3927
     1.4813   1.6123   1.8534   2.2317   2.2497   2.8026   2.8130   3.2520
     3.4890   3.5708   3.6661   4.0190

          k = 0.1250 0.4375 0.0000 ( 47791 PWs)   bands (ev):

    -6.6837  -6.4228  -6.0043  -5.5583  -5.4239  -5.2993  -4.8838  -4.6832
    -4.3077  -3.7971  -3.5726  -2.7724  -2.6933  -1.6773  -1.6124  -0.5340
    -0.3315  -0.1092   0.1254   0.5586   0.7759   0.8921   1.1070   1.2258
     1.2329   1.6205   1.8048   1.9036   2.1792   2.2377   2.6414   2.8791
     2.9869   3.6568   3.7285   4.0390

          k = 0.1250-0.5000 0.0000 ( 47842 PWs)   bands (ev):

    -6.1550  -6.1550  -5.8950  -5.8950  -5.4779  -5.4779  -4.8994  -4.8994
    -4.1613  -4.1613  -3.2783  -3.2783  -2.2574  -2.2574  -1.1029  -1.1029
     0.1552   0.1552   0.3835   0.3835   0.6786   0.6786   1.0553   1.0553
     1.6051   1.6051   1.6709   1.6709   2.3209   2.3209   2.3980   2.3980
     3.1745   3.1745   4.1311   4.1311

          k = 0.1875 0.1875 0.0000 ( 47793 PWs)   bands (ev):

    -7.9253  -7.6624  -7.2405  -6.6555  -5.9091  -5.0160  -3.9829  -2.8127
    -2.3545  -2.3545  -2.1020  -2.1020  -1.6976  -1.6976  -1.5166  -1.1380
    -1.1380  -0.4097  -0.4097  -0.0260   0.4627   0.4627   0.7575   1.4481
     1.4481   2.5716   2.5716   2.7331   3.2002   3.2313   3.6462   3.7956
     3.7956   4.1884   4.2716   4.2716

          k = 0.1875 0.2500 0.0000 ( 47795 PWs)   bands (ev):

    -7.6761  -7.4136  -6.9924  -6.4083  -5.6630  -4.7713  -3.7399  -3.2028
    -2.9482  -2.5716  -2.5403  -2.1160  -1.9755  -1.8638  -1.4589  -1.2781
    -1.2640  -0.8786  -0.4074  -0.1346   0.2082   0.6181   0.7040   0.9880
     1.6445   1.7995   2.1623   2.4338   2.7671   2.8338   3.0552   3.1950
     3.3878   3.9925   4.0971   4.3642

          k = 0.1875 0.3125 0.0000 ( 47802 PWs)   bands (ev):

    -7.3563  -7.0944  -6.6741  -6.0911  -5.3473  -4.4574  -3.9930  -3.7367
    -3.4281  -3.3260  -2.7567  -2.2624  -2.0322  -1.8092  -1.5566  -1.2267
    -1.0829  -0.9727  -0.5990  -0.1252   0.1402   0.5004   0.9928   0.9963
     1.2829   1.4403   1.6823   1.9875   2.0800   2.2510   2.6347   3.1194
     3.3191   3.4910   3.6714   4.1827

          k = 0.1875 0.3750 0.0000 ( 47823 PWs)   bands (ev):

    -6.9665  -6.7052  -6.2859  -5.7044  -4.9624  -4.7206  -4.4630  -4.0747
    -4.0500  -3.4773  -3.0481  -2.7469  -1.8859  -1.8755  -1.4351  -1.1934
    -0.8572  -0.7779  -0.6024  -0.1962   0.2980   0.5114   0.6412   0.9772
     0.9882   1.3429   1.3843   1.5831   1.6392   1.9453   2.3377   2.6473
     3.0460   3.4256   3.4995   3.8247

          k = 0.1875 0.4375 0.0000 ( 47828 PWs)   bands (ev):

    -6.5072  -6.2466  -5.8285  -5.3832  -5.2488  -5.1244  -4.7095  -4.5090
    -4.1340  -3.6240  -3.3999  -2.6007  -2.5222  -1.5106  -1.4433  -0.9976
    -0.7402  -0.4434  -0.2338  -0.1811   0.0745   0.2332   0.3723   0.7510
     0.9297   0.9429   1.3028   1.3410   1.7998   2.0225   2.0684   2.3714
     2.8315   2.8798   3.1145   3.8401

          k = 0.1875-0.5000 0.0000 ( 47810 PWs)   bands (ev):

    -5.9791  -5.9791  -5.7194  -5.7194  -5.3027  -5.3027  -4.7250  -4.7250
    -3.9878  -3.9878  -3.1060  -3.1060  -2.0870  -2.0870  -0.9399  -0.9399
    -0.4866  -0.4866  -0.2519  -0.2519   0.1852   0.1852   0.3766   0.3766
     0.7366   0.7366   1.4352   1.4352   1.8500   1.8500   2.2718   2.2718
     2.5999   2.5999   3.2988   3.2988

          k = 0.2500 0.2500 0.0000 ( 47859 PWs)   bands (ev):

    -7.4273  -7.1653  -6.7447  -6.1616  -5.4174  -4.5271  -3.4973  -2.9621
    -2.9621  -2.7083  -2.7083  -2.3311  -2.3015  -2.3015  -1.7387  -1.7387
    -1.0407  -1.0058  -1.0058  -0.1311  -0.1310   0.4327   0.8609   0.8609
     1.2167   1.3805   1.6228   1.9934   1.9934   2.0208   2.5760   3.2478
     3.2478   3.2598   3.4297   4.1251

          k = 0.2500 0.3125 0.0000 ( 47856 PWs)   bands (ev):

    -7.1081  -6.8466  -6.4269  -5.8449  -5.1023  -4.2138  -3.7507  -3.4950
    -3.1862  -3.0853  -2.6537  -2.5179  -2.4001  -2.0229  -1.9931  -1.8027
    -1.4102  -0.9387  -0.7381  -0.6678   0.0842   0.1807   0.5129   0.8466
     0.8644   1.1191   1.2612   1.2795   1.5067   1.8231   2.2495   2.5261
     2.5456   3.3796   3.4906   3.6917

          k = 0.2500 0.3750 0.0000 ( 47843 PWs)   bands (ev):

    -6.7189  -6.4580  -6.0394  -5.4588  -4.7181  -4.4769  -4.2198  -3.8318
    -3.8076  -3.2362  -2.8071  -2.5089  -2.2768  -2.0230  -1.6955  -1.6480
    -1.5520  -1.0598  -0.5977  -0.3833  -0.3204  -0.1170   0.1812   0.5299
     0.5362   0.5612   1.1142   1.1405   1.5354   1.7918   1.8359   1.8702
     2.6723   2.6949   3.2340   3.6559

          k = 0.2500 0.4375 0.0000 ( 47865 PWs)   bands (ev):

    -6.2604  -6.0002  -5.5828  -5.1383  -5.0040  -4.8800  -4.4658  -4.2654
    -3.8914  -3.3820  -3.1589  -2.3610  -2.2847  -1.8329  -1.5903  -1.2622
    -1.2113  -1.1727  -0.7461  -0.5912  -0.5105  -0.1062  -0.0728   0.1073
     0.1207   0.4805   0.9522   1.1797   1.1877   1.5856   1.9518   2.0169
     2.3393   2.6606   3.0399   3.0496

          k = 0.2500-0.5000 0.0000 ( 47812 PWs)   bands (ev):

    -5.7332  -5.7332  -5.4739  -5.4739  -5.0580  -5.0580  -4.4812  -4.4812
    -3.7453  -3.7453  -2.8654  -2.8654  -1.8511  -1.8511  -1.3259  -1.3259
    -1.0676  -1.0676  -0.7733  -0.7733  -0.5684  -0.5684  -0.0918  -0.0918
     0.5949   0.5949   0.6204   0.6204   1.4801   1.4801   2.0419   2.0419
     2.5165   2.5165   2.7859   2.7859

          k = 0.3125 0.3125 0.0000 ( 47893 PWs)   bands (ev):

    -6.7896  -6.5286  -6.1098  -5.5289  -4.7878  -3.9012  -3.4399  -3.4399
    -3.1850  -3.1850  -2.8760  -2.7766  -2.7766  -2.2113  -2.2113  -1.7163
    -1.4754  -1.4754  -0.6002  -0.6002  -0.4508  -0.1815   0.1166   0.3966
     0.3966   0.4971   1.0504   1.0734   1.5342   1.5342   1.7728   1.8041
     2.6324   2.7957   2.7957   3.5936

          k = 0.3125 0.3750 0.0000 ( 47901 PWs)   bands (ev):

    -6.4013  -6.1409  -5.7231  -5.1437  -4.4045  -4.1643  -3.9078  -3.5203
    -3.4968  -3.0614  -2.9275  -2.8069  -2.4983  -2.3984  -2.2094  -1.8141
    -1.3473  -1.3399  -1.0741  -0.8773  -0.6412  -0.3206  -0.2172  -0.2035
    -0.0280   0.3507   0.7197   0.8841   1.0502   1.4524   1.8551   1.8879
     2.1545   2.2085   2.9230   3.1014

          k = 0.3125 0.4375 0.0000 ( 47892 PWs)   bands (ev):

    -5.9437  -5.6841  -5.2675  -4.8242  -4.6899  -4.5664  -4.1531  -3.9530
    -3.5803  -3.0719  -2.8511  -2.6146  -2.3600  -2.0559  -2.0324  -1.8907
    -1.5251  -1.3927  -1.2664  -0.9720  -0.9381  -0.7716  -0.6541  -0.2895
     0.1942   0.2055   0.3930   0.4241   1.2077   1.2855   1.4600   1.8423
     2.3242   2.3478   2.5881   2.9079

          k = 0.3125-0.5000 0.0000 ( 47848 PWs)   bands (ev):

    -5.4177  -5.4177  -5.1589  -5.1589  -4.7439  -4.7439  -4.1684  -4.1684
    -3.4344  -3.4344  -2.5584  -2.5584  -2.1011  -2.1011  -1.8577  -1.8577
    -1.5335  -1.5335  -1.4391  -1.4391  -0.8582  -0.8582  -0.3774  -0.3774
    -0.1433  -0.1433   0.6882   0.6882   0.9219   0.9219   1.6909   1.6909
     2.3982   2.3982   2.7797   2.7797

          k = 0.3750 0.3750 0.0000 ( 47894 PWs)   bands (ev):

    -6.0140  -5.7542  -5.3375  -4.7596  -4.0224  -3.7833  -3.7833  -3.5278
    -3.5278  -3.1408  -3.1182  -3.1182  -2.5511  -2.5511  -2.1243  -1.8133
    -1.8133  -1.5918  -1.3330  -1.0384  -0.9381  -0.9381  -0.8397  -0.3558
     0.0621   0.0621   0.3255   0.3583   1.2030   1.2030   1.2202   1.7755
     2.2597   2.4683   2.4683   2.5222

          k = 0.3750 0.4375 0.0000 ( 47880 PWs)   bands (ev):

    -5.5577  -5.2986  -4.8832  -4.4412  -4.3072  -4.1842  -3.7723  -3.5725
    -3.3348  -3.2018  -3.0797  -2.6956  -2.6702  -2.4816  -2.2359  -2.0853
    -1.9921  -1.6695  -1.6085  -1.5730  -1.3471  -0.9925  -0.5921  -0.5135
    -0.4844  -0.2762   0.4516   0.5553   0.6187   0.7884   1.5595   1.5900
     1.8914   2.2660   2.6489   2.8394

          k = 0.3750-0.5000 0.0000 ( 47954 PWs)   bands (ev):

    -5.0331  -5.0331  -4.7750  -4.7750  -4.3611  -4.3611  -3.7874  -3.7874
    -3.0570  -3.0570  -2.8184  -2.8184  -2.5634  -2.5634  -2.2352  -2.2352
    -2.0951  -2.0951  -1.5935  -1.5935  -1.1432  -1.1432  -0.8557  -0.8557
    -0.0081  -0.0081   0.0056   0.0056   1.0095   1.0095   1.2599   1.2599
     2.1515   2.1515   2.7103   2.7103

          k = 0.4375 0.4375 0.0000 ( 47946 PWs)   bands (ev):

    -5.1028  -4.8446  -4.4305  -3.9901  -3.9900  -3.8565  -3.7341  -3.7341
    -3.3238  -3.3238  -3.1258  -2.8865  -2.7558  -2.7558  -2.6313  -2.3029
    -2.1634  -2.0170  -2.0170  -1.6606  -1.2117  -1.1418  -1.1418  -0.9231
    -0.1395  -0.1395  -0.0757  -0.0613   0.9433   1.0032   1.0032   1.1930
     2.0858   2.2706   2.2706   2.6442

          k = 0.4375-0.5000 0.0000 ( 47970 PWs)   bands (ev):

    -4.5799  -4.5799  -4.3227  -4.3227  -3.9104  -3.9104  -3.4719  -3.4719
    -3.3392  -3.3392  -3.2166  -3.2166  -2.8066  -2.8066  -2.6180  -2.6180
    -2.2214  -2.2214  -1.7431  -1.7431  -1.4842  -1.4842  -0.7283  -0.7283
    -0.6185  -0.6185   0.3170   0.3170   0.4854   0.4854   1.4569   1.4569
     1.7592   1.7592   2.7077   2.7077

          k =-0.5000-0.5000 0.0000 ( 47904 PWs)   bands (ev):

    -4.0591  -4.0591  -4.0591  -4.0591  -3.8030  -3.8030  -3.8030  -3.8030
    -3.3925  -3.3925  -3.3925  -3.3925  -2.8241  -2.8241  -2.8241  -2.8241
    -2.0850  -2.0850  -2.0850  -2.0850  -1.2099  -1.2099  -1.2099  -1.2099
    -0.2069  -0.2069  -0.2069  -0.2069   0.9365   0.9365   0.9365   0.9365
     2.2045   2.2045   2.2045   2.2046

     the Fermi energy is     2.5984 ev

!    total energy              =    -249.18945726 Ry
     Harris-Foulkes estimate   =    -249.18945749 Ry
     estimated scf accuracy    <       0.00000025 Ry

     The total energy is the sum of the following terms:

     one-electron contribution =   -1701.89813917 Ry
     hartree contribution      =     868.99215906 Ry
     xc contribution           =    -200.28073623 Ry
     ewald contribution        =     783.99792241 Ry
     smearing contrib. (-TS)   =      -0.00066332 Ry

     convergence has been achieved in   5 iterations

     Forces acting on atoms (Ry/au):


     negative rho (up, down):  6.327E-06 0.000E+00
     atom    1 type  1   force =     0.00000000    0.00000000   -0.00293413
     atom    2 type  1   force =     0.00000000    0.00000000   -0.00293410
     atom    3 type  1   force =     0.00000000    0.00000000    0.00181475
     atom    4 type  1   force =     0.00000000    0.00000000    0.00181475
     atom    5 type  1   force =     0.00000000    0.00000000    0.00089866
     atom    6 type  1   force =     0.00000000    0.00000000    0.00089859
     atom    7 type  1   force =     0.00000000    0.00000000    0.00090129
     atom    8 type  1   force =     0.00000000    0.00000000    0.00090129
     atom    9 type  1   force =     0.00000000    0.00000000    0.00028494
     atom   10 type  1   force =     0.00000000    0.00000000    0.00028492
     atom   11 type  1   force =     0.00000000    0.00000000   -0.00028533
     atom   12 type  1   force =     0.00000000    0.00000000   -0.00028533
     atom   13 type  1   force =     0.00000000    0.00000000   -0.00090146
     atom   14 type  1   force =     0.00000000    0.00000000   -0.00090146
     atom   15 type  1   force =     0.00000000    0.00000000   -0.00089965
     atom   16 type  1   force =     0.00000000    0.00000000   -0.00089965
     atom   17 type  1   force =     0.00000000    0.00000000   -0.00181424
     atom   18 type  1   force =     0.00000000    0.00000000   -0.00181427
     atom   19 type  1   force =     0.00000000    0.00000000    0.00293523
     atom   20 type  1   force =     0.00000000    0.00000000    0.00293523

     Total force =     0.007378     Total SCF correction =     0.000772
     SCF correction compared to forces is large: reduce conv_thr to get better values


     entering subroutine stress ...


     negative rho (up, down):  6.327E-06 0.000E+00
          total   stress  (Ry/bohr**3)                   (kbar)     P=   -4.80
  -0.00005473   0.00000000   0.00000000         -8.05      0.00      0.00
   0.00000000  -0.00005473   0.00000000          0.00     -8.05      0.00
   0.00000000   0.00000000   0.00001161          0.00      0.00      1.71


     number of scf cycles    =   2
     number of bfgs steps    =   1

     energy   old            =    -249.1893933516 Ry
     energy   new            =    -249.1894572557 Ry

     CASE: energy  _new < energy  _old


     WARNING: bfgs curvature condition failed, Theta= 0.888
     new trust radius        =       0.0048214716 bohr
     new conv_thr            =       0.0000000100 Ry


ATOMIC_POSITIONS (crystal)
Al       0.000000000   0.000000000  -0.000117384
Al       0.500000000   0.500000000  -0.000117377
Al       0.500000000   0.000000000   0.055631578
Al       0.000000000   0.500000000   0.055631578
Al       0.000000000   0.000000000   0.111144246
Al       0.500000000   0.500000000   0.111144247
Al       0.500000000   0.000000000   0.166702034
Al       0.000000000   0.500000000   0.166702034
Al       0.000000000   0.000000000   0.222232972
Al       0.500000000   0.500000000   0.222232970
Al       0.500000000   0.000000000   0.277767030
Al       0.000000000   0.500000000   0.277767030
Al       0.000000000   0.000000000   0.333297942
Al       0.500000000   0.500000000   0.333297945
Al       0.500000000   0.000000000   0.388855731
Al       0.000000000   0.500000000   0.388855731
Al       0.000000000   0.000000000   0.444368446
Al       0.500000000   0.500000000   0.444368439
Al       0.500000000   0.000000000   0.500117405
Al       0.000000000   0.500000000   0.500117405



     Writing output data file Al_100_5_4.save
     NEW-OLD atomic charge density approx. for the potential

     negative rho (up, down):  6.126E-06 0.000E+00

     total cpu time spent up to now is     7431.5 secs

     per-process dynamical memory:  1372.4 Mb

     Self-consistent Calculation

     iteration #  1     ecut=    80.00 Ry     beta=0.30
     Davidson diagonalization with overlap
     ethr =  1.00E-06,  avg # of iterations =  2.3

     negative rho (up, down):  3.554E-06 0.000E+00

     total cpu time spent up to now is     7738.5 secs

     total energy              =    -249.18954383 Ry
     Harris-Foulkes estimate   =    -249.18954904 Ry
     estimated scf accuracy    <       0.00039972 Ry

     iteration #  2     ecut=    80.00 Ry     beta=0.30
     Davidson diagonalization with overlap
     ethr =  6.66E-07,  avg # of iterations =  1.0

     negative rho (up, down):  3.267E-07 0.000E+00

     total cpu time spent up to now is     7969.7 secs

     total energy              =    -249.18952838 Ry
     Harris-Foulkes estimate   =    -249.18954659 Ry
     estimated scf accuracy    <       0.00026565 Ry

     iteration #  3     ecut=    80.00 Ry     beta=0.30
     Davidson diagonalization with overlap
     ethr =  4.43E-07,  avg # of iterations =  1.4

     negative rho (up, down):  6.416E-07 0.000E+00

     total cpu time spent up to now is     8201.0 secs

     total energy              =    -249.18953895 Ry
     Harris-Foulkes estimate   =    -249.18954044 Ry
     estimated scf accuracy    <       0.00002761 Ry

     iteration #  4     ecut=    80.00 Ry     beta=0.30
     Davidson diagonalization with overlap
     ethr =  4.60E-08,  avg # of iterations =  2.0

     negative rho (up, down):  8.265E-07 0.000E+00

     total cpu time spent up to now is     8446.3 secs

     total energy              =    -249.18954002 Ry
     Harris-Foulkes estimate   =    -249.18954012 Ry
     estimated scf accuracy    <       0.00000178 Ry

     iteration #  5     ecut=    80.00 Ry     beta=0.30
     Davidson diagonalization with overlap
     ethr =  2.97E-09,  avg # of iterations =  2.4

     negative rho (up, down):  1.593E-06 0.000E+00

     total cpu time spent up to now is     8688.7 secs

     total energy              =    -249.18954002 Ry
     Harris-Foulkes estimate   =    -249.18954010 Ry
     estimated scf accuracy    <       0.00000020 Ry

     iteration #  6     ecut=    80.00 Ry     beta=0.30
     Davidson diagonalization with overlap
     ethr =  3.34E-10,  avg # of iterations =  3.1

     negative rho (up, down):  1.738E-06 0.000E+00

     total cpu time spent up to now is     8972.7 secs

     total energy              =    -249.18954005 Ry
     Harris-Foulkes estimate   =    -249.18954005 Ry
     estimated scf accuracy    <       0.00000013 Ry

     iteration #  7     ecut=    80.00 Ry     beta=0.30
     Davidson diagonalization with overlap
     ethr =  2.16E-10,  avg # of iterations =  1.0

     negative rho (up, down):  3.444E-06 0.000E+00

     total cpu time spent up to now is     9203.1 secs

     total energy              =    -249.18954004 Ry
     Harris-Foulkes estimate   =    -249.18954005 Ry
     estimated scf accuracy    <       0.00000016 Ry

     iteration #  8     ecut=    80.00 Ry     beta=0.30
     Davidson diagonalization with overlap
     ethr =  2.16E-10,  avg # of iterations =  2.0

     negative rho (up, down):  6.307E-06 0.000E+00

     total cpu time spent up to now is     9453.4 secs

     End of self-consistent calculation

          k = 0.0000 0.0000 0.0000 ( 47879 PWs)   bands (ev):

    -8.5668  -8.3012  -7.8762  -7.2876  -6.5385  -5.6443  -4.6090  -3.4346
    -2.1327  -0.6378  -0.2871  -0.2871  -0.0424  -0.0424   0.1620   0.3489
     0.3489   0.8925   0.8925   1.0761   1.0761   1.3296   1.3296   1.5877
     1.5877   1.7297   1.7297   2.2635   2.2635   2.2873   2.4218   2.4218
     3.0687   3.0687   3.3948   3.3948

          k = 0.0000 0.0625 0.0000 ( 47817 PWs)   bands (ev):

    -8.5310  -8.2655  -7.8406  -7.2521  -6.5032  -5.6092  -4.5741  -3.4000
    -2.0983  -0.8587  -0.6094  -0.6036  -0.2543  -0.2112  -0.0096   0.1952
     0.3399   0.3817   0.9253   1.0375   1.1107   1.3677   1.6205   1.7089
     1.7159   1.9231   1.9782   2.2592   2.3205   2.4079   2.4547   2.7948
     2.9212   3.2361   3.4276   3.5563

          k = 0.0000 0.1250 0.0000 ( 47819 PWs)   bands (ev):

    -8.4238  -8.1584  -7.7338  -7.1457  -6.3973  -5.5038  -4.4694  -3.2961
    -1.9954  -1.7626  -1.5097  -1.1058  -0.5468  -0.5012  -0.1559   0.0889
     0.1633   0.2945   0.4802   1.0001   1.0238   1.2157   1.4548   1.7190
     1.8891   1.9769   2.4196   2.5356   2.5531   2.7961   3.0211   3.1603
     3.2082   3.4042   3.5259   4.0317

          k = 0.0000 0.1875 0.0000 ( 47794 PWs)   bands (ev):

    -8.2451  -7.9801  -7.5559  -6.9685  -6.2209  -5.3284  -4.2952  -3.1231
    -2.6611  -2.4059  -1.9981  -1.8239  -1.4335  -0.7156  -0.3308   0.0082
     0.1386   0.2529   0.4600   0.6443   1.1087   1.1879   1.3792   1.6606
     1.8831   1.9615   2.4181   2.5835   2.6780   2.7171   3.3694   3.5501
     3.6898   3.9918   4.1075   4.1775

          k = 0.0000 0.2500 0.0000 ( 47832 PWs)   bands (ev):

    -7.9954  -7.7308  -7.3073  -6.7207  -5.9743  -5.0832  -4.0516  -3.5119
    -3.2548  -2.8814  -2.8440  -2.2752  -1.5844  -1.5515  -0.6888  -0.0929
     0.2380   0.3056   0.4827   0.6915   0.8740   1.3919   1.4176   1.6436
     1.8556   2.1128   2.3791   2.7790   2.8094   2.9149   2.9467   3.6026
     3.9192   4.2055   4.3167   4.4176

          k = 0.0000 0.3125 0.0000 ( 47800 PWs)   bands (ev):

    -7.6750  -7.4108  -6.9882  -6.4028  -5.6579  -4.7686  -4.3041  -4.0455
    -3.7390  -3.6322  -3.0599  -2.5712  -2.3316  -1.4627  -1.2772  -0.4586
     0.2118   0.5334   0.6726   0.7781   0.9889   1.1695   1.7131   1.8298
     1.9129   2.3579   2.4082   2.6608   3.0896   3.2129   3.2419   3.4457
     3.6873   3.9319   3.9563   4.1128

          k = 0.0000 0.3750 0.0000 ( 47828 PWs)   bands (ev):

    -7.2843  -7.0208  -6.5992  -6.0152  -5.2721  -5.0334  -4.7736  -4.3850
    -4.3581  -3.7828  -3.3580  -3.0506  -2.1932  -2.1768  -1.1661  -0.9029
    -0.0226   0.5819   0.8945   1.1393   1.2287   1.3519   1.5307   2.0743
     2.2009   2.6323   2.7693   2.8565   2.9971   3.0263   3.2419   3.3946
     3.4179   3.6028   3.6188   3.6330

          k = 0.0000 0.4375 0.0000 ( 47840 PWs)   bands (ev):

    -6.8240  -6.5612  -6.1408  -5.6975  -5.5586  -5.4365  -5.0192  -4.8176
    -4.4412  -3.9331  -3.7057  -2.9092  -2.8278  -1.8119  -1.7481  -0.6609
    -0.4626   0.6090   1.0151   1.3215   1.5663   1.7799   1.9576   2.0200
     2.3728   2.5011   2.6175   2.8214   2.8352   3.0088   3.0560   3.1960
     3.4576   3.5431   3.5520   4.0291

          k = 0.0000-0.5000 0.0000 ( 47822 PWs)   bands (ev):

    -6.2947  -6.2947  -6.0328  -6.0328  -5.6138  -5.6138  -5.0336  -5.0336
    -4.2952  -4.2952  -3.4137  -3.4137  -2.3934  -2.3934  -1.2369  -1.2369
     0.0423   0.0423   1.5051   1.5051   1.8142   1.8142   2.0590   2.0590
     2.2717   2.2717   2.4503   2.4503   2.9937   2.9937   3.2345   3.2345
     3.5339   3.5339   3.6883   3.6883

          k = 0.0625 0.0625 0.0000 ( 47799 PWs)   bands (ev):

    -8.4953  -8.2298  -7.8050  -7.2166  -6.4679  -5.5741  -4.5392  -3.3653
    -2.0640  -0.8253  -0.8253  -0.5762  -0.5762  -0.5695  -0.1783  -0.1783
     0.2283   0.3723   0.3723   1.0782   1.0782   1.7406   1.7406   1.9165
     1.9165   1.9892   1.9892   2.3534   2.4017   2.4017   2.8089   2.8089
     3.0575   3.0575   3.7086   3.7086

          k = 0.0625 0.1250 0.0000 ( 47788 PWs)   bands (ev):

    -8.3880  -8.1227  -7.6982  -7.1102  -6.3620  -5.4687  -4.4346  -3.2615
    -1.9611  -1.7287  -1.4759  -1.0724  -0.7253  -0.5144  -0.4762  -0.4671
    -0.0779   0.1877   0.3276   0.4874   1.0190   1.2182   1.8422   1.9695
     2.0278   2.1601   2.4518   2.4795   2.8267   2.9569   3.0925   3.1100
     3.2329   3.4612   3.7218   3.9795

          k = 0.0625 0.1875 0.0000 ( 47821 PWs)   bands (ev):

    -8.2094  -7.9444  -7.5204  -6.9330  -6.1856  -5.2934  -4.2603  -3.0886
    -2.6269  -2.3718  -1.9641  -1.7897  -1.4000  -0.6838  -0.5582  -0.3086
    -0.2969   0.0608   0.2037   0.4930   0.6371   1.1788   1.3570   1.9950
     2.1934   2.2589   2.2635   2.6136   2.7728   3.1710   3.2656   3.5940
     3.9453   4.0217   4.1241   4.2687

          k = 0.0625 0.2500 0.0000 ( 47839 PWs)   bands (ev):

    -7.9598  -7.6952  -7.2718  -6.6854  -5.9391  -5.0482  -4.0168  -3.4774
    -3.2204  -2.8469  -2.8097  -2.2411  -1.5503  -1.5179  -0.6573  -0.3243
    -0.0806  -0.0592   0.3242   0.3410   0.7245   0.8938   1.4729   1.5899
     2.2438   2.3893   2.4436   2.8305   2.8814   2.9595   3.3988   3.5025
     3.9572   4.0796   4.1235   4.3232

          k = 0.0625 0.3125 0.0000 ( 47799 PWs)   bands (ev):

    -7.6394  -7.3753  -6.9528  -6.3675  -5.6228  -4.7337  -4.2694  -4.0109
    -3.7043  -3.5977  -3.0255  -2.5368  -2.2975  -1.4292  -1.2432  -0.4281
    -0.0261   0.2272   0.2449   0.5742   0.7732   1.0217   1.1848   1.8852
     1.9542   2.5132   2.7275   2.8783   2.9872   3.2526   3.3369   3.3971
     3.4793   3.7433   3.7957   3.8025

          k = 0.0625 0.3750 0.0000 ( 47793 PWs)   bands (ev):

    -7.2488  -6.9854  -6.5639  -5.9801  -5.2371  -4.9985  -4.7387  -4.3502
    -4.3234  -3.7482  -3.3234  -3.0162  -2.1590  -2.1428  -1.1328  -0.8692
     0.0049   0.3440   0.5827   0.6135   1.0030   1.2921   1.3844   1.5489
     2.2451   2.4565   2.6167   2.7157   3.0807   3.0900   3.1125   3.2149
     3.4942   3.5172   3.6163   3.6622

          k = 0.0625 0.4375 0.0000 ( 47840 PWs)   bands (ev):

    -6.7886  -6.5259  -6.1056  -5.6624  -5.5235  -5.4015  -4.9843  -4.7827
    -4.4065  -3.8984  -3.6711  -2.8748  -2.7935  -1.7779  -1.7141  -0.6281
    -0.4294   0.6251   0.7690   1.0396   1.0536   1.4305   1.8111   1.8514
     1.9783   2.0929   2.1071   2.4877   2.6855   2.8559   3.0377   3.3797
     3.5293   3.6397   3.7227   3.8416

          k = 0.0625-0.5000 0.0000 ( 47854 PWs)   bands (ev):

    -6.2595  -6.2595  -5.9976  -5.9976  -5.5788  -5.5788  -4.9987  -4.9987
    -4.2604  -4.2604  -3.3792  -3.3792  -2.3592  -2.3592  -1.2032  -1.2032
     0.0737   0.0737   1.2339   1.2339   1.5328   1.5328   1.5938   1.5938
     1.9265   1.9265   2.2982   2.2982   2.4822   2.4822   3.1772   3.1772
     3.7673   3.7673   4.0177   4.0179

          k = 0.1250 0.1250 0.0000 ( 47769 PWs)   bands (ev):

    -8.2808  -8.0157  -7.5915  -7.0039  -6.2562  -5.3635  -4.3300  -3.1577
    -1.8582  -1.6271  -1.6271  -1.3748  -1.3748  -0.9720  -0.9720  -0.4155
    -0.4155  -0.3650   0.3051   0.3051   0.4268   1.1675   1.1675   2.1394
     2.1394   2.5471   2.9168   2.9168   3.1613   3.1613   3.2338   3.2338
     3.6577   3.6577   4.1362   4.1367

          k = 0.1250 0.1875 0.0000 ( 47760 PWs)   bands (ev):

    -8.1024  -7.8376  -7.4138  -6.8268  -6.0799  -5.1883  -4.1559  -2.9849
    -2.5242  -2.2694  -1.8625  -1.6871  -1.4582  -1.2999  -1.2061  -0.8029
    -0.5932  -0.2261  -0.1953   0.2529   0.5150   0.5921   1.2725   1.3418
     2.2816   2.4263   2.6969   3.0925   3.2633   3.4207   3.7785   3.7859
     3.9265   3.9827   4.1271   4.3164

          k = 0.1250 0.2500 0.0000 ( 47813 PWs)   bands (ev):

    -7.8529  -7.5885  -7.1654  -6.5793  -5.8336  -4.9433  -3.9126  -3.3739
    -3.1172  -2.7435  -2.7069  -2.1391  -1.4480  -1.4185  -1.2213  -0.9688
    -0.6289  -0.4880  -0.0151   0.0414   0.4739   0.7197   0.8233   1.5644
     1.5863   2.5506   2.7989   2.8092   3.2455   3.2834   3.2996   3.6361
     3.6819   3.6977   4.0137   4.2411

          k = 0.1250 0.3125 0.0000 ( 47843 PWs)   bands (ev):

    -7.5328  -7.2689  -6.8466  -6.2618  -5.5175  -4.6290  -4.1652  -3.9070
    -3.6003  -3.4941  -2.9224  -2.4337  -2.1954  -1.3301  -1.1414  -0.9172
    -0.6745  -0.3199  -0.2611   0.3192   0.3432   0.8309   1.0213   1.1199
     1.8502   2.0993   2.2742   2.5440   2.8359   2.9443   3.3148   3.4015
     3.4982   3.8150   3.9147   3.9266

          k = 0.1250 0.3750 0.0000 ( 47819 PWs)   bands (ev):

    -7.1425  -6.8792  -6.4580  -5.8746  -5.1321  -4.8938  -4.6342  -4.2458
    -4.2192  -3.6444  -3.2198  -2.9131  -2.0563  -2.0409  -1.0349  -0.7684
    -0.5494  -0.2920   0.0159   0.2243   0.6788   0.7027   1.3845   1.3930
     1.4809   1.6133   1.8562   2.2346   2.2541   2.8083   2.8128   3.2528
     3.4940   3.5708   3.6675   4.0199

          k = 0.1250 0.4375 0.0000 ( 47791 PWs)   bands (ev):

    -6.6826  -6.4200  -6.0000  -5.5572  -5.4183  -5.2965  -4.8796  -4.6781
    -4.3022  -3.7944  -3.5674  -2.7715  -2.6905  -1.6764  -1.6121  -0.5338
    -0.3312  -0.1081   0.1281   0.5629   0.7763   0.8928   1.1127   1.2286
     1.2326   1.6248   1.8100   1.9033   2.1848   2.2375   2.6440   2.8846
     2.9870   3.6577   3.7314   4.0400

          k = 0.1250-0.5000 0.0000 ( 47842 PWs)   bands (ev):

    -6.1539  -6.1539  -5.8922  -5.8922  -5.4736  -5.4736  -4.8939  -4.8939
    -4.1562  -4.1562  -3.2756  -3.2756  -2.2566  -2.2566  -1.1027  -1.1027
     0.1557   0.1557   0.3846   0.3846   0.6813   0.6813   1.0596   1.0596
     1.6108   1.6108   1.6704   1.6704   2.3263   2.3263   2.3977   2.3977
     3.1774   3.1774   4.1320   4.1320

          k = 0.1875 0.1875 0.0000 ( 47793 PWs)   bands (ev):

    -7.9242  -7.6596  -7.2363  -6.6500  -5.9039  -5.0133  -3.9821  -2.8124
    -2.3534  -2.3534  -2.0992  -2.0992  -1.6933  -1.6933  -1.5163  -1.1326
    -1.1326  -0.4042  -0.4042  -0.0266   0.4654   0.4654   0.7570   1.4490
     1.4490   2.5719   2.5719   2.7338   3.2014   3.2341   3.6507   3.7962
     3.7962   4.1939   4.2726   4.2726

          k = 0.1875 0.2500 0.0000 ( 47795 PWs)   bands (ev):

    -7.6750  -7.4108  -6.9882  -6.4028  -5.6579  -4.7686  -3.7390  -3.2017
    -2.9454  -2.5714  -2.5360  -2.1149  -1.9700  -1.8610  -1.4548  -1.2778
    -1.2590  -0.8728  -0.4037  -0.1300   0.2076   0.6188   0.7069   0.9876
     1.6448   1.8004   2.1633   2.4366   2.7674   2.8381   3.0556   3.1960
     3.3936   3.9933   4.1026   4.3643

          k = 0.1875 0.3125 0.0000 ( 47802 PWs)   bands (ev):

    -7.3553  -7.0916  -6.6698  -6.0856  -5.3422  -4.4547  -3.9919  -3.7340
    -3.4273  -3.3217  -2.7511  -2.2622  -2.0270  -1.8081  -1.5538  -1.2238
    -1.0786  -0.9724  -0.5933  -0.1243   0.1454   0.4999   0.9956   0.9966
     1.2825   1.4413   1.6851   1.9885   2.0843   2.2515   2.6404   3.1198
     3.3240   3.4926   3.6715   4.1857

          k = 0.1875 0.3750 0.0000 ( 47823 PWs)   bands (ev):

    -6.9654  -6.7024  -6.2816  -5.6989  -4.9573  -4.7195  -4.4602  -4.0720
    -4.0457  -3.4717  -3.0473  -2.7417  -1.8856  -1.8728  -1.4340  -1.1908
    -0.8559  -0.7735  -0.6021  -0.1908   0.2982   0.5167   0.6419   0.9769
     0.9910   1.3453   1.3886   1.5839   1.6388   1.9509   2.3386   2.6527
     3.0458   3.4262   3.5025   3.8241

          k = 0.1875 0.4375 0.0000 ( 47828 PWs)   bands (ev):

    -6.5061  -6.2438  -5.8243  -5.3821  -5.2432  -5.1217  -4.7052  -4.5038
    -4.1285  -3.6213  -3.3947  -2.5998  -2.5194  -1.5097  -1.4430  -0.9966
    -0.7374  -0.4409  -0.2316  -0.1807   0.0755   0.2387   0.3749   0.7553
[...]
     3.1010   3.1010   3.3964   3.3964

          k = 0.0000 0.0625 0.0000 ( 47817 PWs)   bands (ev):

    -8.5322  -8.2488  -7.8150  -7.2242  -6.4804  -5.5971  -4.5729  -3.4060
    -2.1059  -0.8602  -0.6169  -0.5924  -0.2559  -0.1847   0.0075   0.1833
     0.3693   0.4087   0.9557   1.0624   1.1093   1.3833   1.6465   1.7074
     1.7341   1.9486   1.9910   2.2928   2.3181   2.4232   2.4693   2.8114
     2.9222   3.2696   3.4291   3.5873

          k = 0.0000 0.1250 0.0000 ( 47819 PWs)   bands (ev):

    -8.4249  -8.1417  -7.7082  -7.1178  -6.3745  -5.4918  -4.4682  -3.3021
    -2.0029  -1.7640  -1.4929  -1.0797  -0.5179  -0.5145  -0.1575   0.1060
     0.1874   0.2826   0.5072   1.0133   1.0541   1.2135   1.4681   1.7449
     1.9163   1.9883   2.4172   2.5564   2.5677   2.7940   3.0401   3.1553
     3.2208   3.4234   3.5275   3.9283

          k = 0.0000 0.1875 0.0000 ( 47794 PWs)   bands (ev):

    -8.2463  -7.9634  -7.5303  -6.9406  -6.1981  -5.3163  -4.2939  -3.1291
    -2.6625  -2.3892  -1.9721  -1.8314  -1.4050  -0.6919  -0.3441   0.0066
     0.1516   0.2701   0.4482   0.6713   1.1101   1.2183   1.3766   1.6793
     1.9091   1.9830   2.4172   2.5812   2.7027   2.7317   3.3901   3.5422
     3.6913   3.9910   4.0862   4.1859

          k = 0.0000 0.2500 0.0000 ( 47832 PWs)   bands (ev):

    -7.9966  -7.7141  -7.2817  -6.6928  -5.9515  -5.0711  -4.0503  -3.5132
    -3.2381  -2.8873  -2.8182  -2.2468  -1.5918  -1.5280  -0.6759  -0.1062
     0.2363   0.3075   0.4998   0.6798   0.9011   1.3856   1.4481   1.6464
     1.8724   2.1388   2.4006   2.7718   2.8071   2.9409   2.9613   3.6218
     3.9206   4.1969   4.2973   4.4278

          k = 0.0000 0.3125 0.0000 ( 47800 PWs)   bands (ev):

    -7.6762  -7.3942  -6.9626  -6.3749  -5.6350  -4.7564  -4.3054  -4.0288
    -3.7377  -3.6065  -3.0316  -2.5771  -2.3082  -1.4500  -1.2845  -0.4568
     0.1985   0.5317   0.6673   0.7953   0.9772   1.1966   1.7436   1.8304
     1.9124   2.3671   2.4343   2.6845   3.0872   3.2387   3.2566   3.4345
     3.6855   3.9493   3.9771   4.1045

          k = 0.0000 0.3750 0.0000 ( 47828 PWs)   bands (ev):

    -7.2855  -7.0041  -6.5736  -5.9873  -5.2492  -5.0347  -4.7569  -4.3728
    -4.3324  -3.7547  -3.3566  -3.0274  -2.1990  -2.1643  -1.1644  -0.9101
    -0.0281   0.5688   0.8929   1.1565   1.2227   1.3403   1.5579   2.1048
     2.1987   2.6483   2.7954   2.8448   2.9954   3.0507   3.2591   3.3916
     3.4116   3.6174   3.6408   3.6604

          k = 0.0000 0.4375 0.0000 ( 47840 PWs)   bands (ev):

    -6.8252  -6.5445  -6.1152  -5.6987  -5.5306  -5.4199  -4.9935  -4.7947
    -4.4132  -3.9208  -3.6826  -2.9077  -2.8154  -1.8103  -1.7538  -0.6665
    -0.4697   0.6023   1.0021   1.3198   1.5835   1.7685   1.9848   2.0092
     2.3710   2.5317   2.6348   2.8123   2.8312   3.0361   3.0708   3.2221
     3.4823   3.5389   3.5828   4.0437

          k = 0.0000-0.5000 0.0000 ( 47822 PWs)   bands (ev):

    -6.2959  -6.2959  -6.0161  -6.0161  -5.5882  -5.5882  -5.0056  -5.0056
    -4.2722  -4.2722  -3.4013  -3.4013  -2.3919  -2.3919  -1.2425  -1.2425
     0.0354   0.0354   1.4926   1.4926   1.8125   1.8125   2.0762   2.0762
     2.2607   2.2607   2.4776   2.4776   3.0244   3.0244   3.2312   3.2312
     3.5506   3.5506   3.7145   3.7145

          k = 0.0625 0.0625 0.0000 ( 47799 PWs)   bands (ev):

    -8.4964  -8.2131  -7.7794  -7.1888  -6.4451  -5.5620  -4.5380  -3.3714
    -2.0716  -0.8268  -0.8268  -0.5828  -0.5592  -0.5592  -0.1518  -0.1518
     0.2164   0.4012   0.4012   1.1038   1.1038   1.7396   1.7396   1.9288
     1.9288   2.0052   2.0052   2.3510   2.4290   2.4290   2.8242   2.8242
     3.0666   3.0666   3.7378   3.7378

          k = 0.0625 0.1250 0.0000 ( 47788 PWs)   bands (ev):

    -8.3892  -8.1060  -7.6726  -7.0824  -6.3392  -5.4567  -4.4334  -3.2675
    -1.9686  -1.7301  -1.4591  -1.0462  -0.7267  -0.4855  -0.4805  -0.4593
    -0.0519   0.2108   0.3157   0.5181   1.0369   1.2390   1.8402   1.9710
     2.0421   2.1787   2.4495   2.5063   2.8250   2.9585   3.1184   3.1261
     3.2282   3.4829   3.7385   3.9579

          k = 0.0625 0.1875 0.0000 ( 47821 PWs)   bands (ev):

    -8.2106  -7.9277  -7.4948  -6.9052  -6.1628  -5.2813  -4.2591  -3.0945
    -2.6283  -2.3550  -1.9382  -1.7972  -1.3714  -0.6600  -0.5598  -0.3102
    -0.2921   0.0815   0.2230   0.4812   0.6671   1.1804   1.3814   1.9906
     2.2075   2.2632   2.2809   2.6112   2.7912   3.1731   3.2918   3.5870
     3.9674   4.0183   4.1047   4.2672

          k = 0.0625 0.2500 0.0000 ( 47839 PWs)   bands (ev):

    -7.9610  -7.6785  -7.2462  -6.6575  -5.9163  -5.0361  -4.0155  -3.4787
    -3.2037  -2.8528  -2.7839  -2.2127  -1.5577  -1.4944  -0.6445  -0.3261
    -0.0725  -0.0648   0.3453   0.3512   0.7127   0.9220   1.4675   1.6147
     2.2435   2.4014   2.4574   2.8281   2.8793   2.9835   3.4007   3.5294
     3.9558   4.0900   4.1293   4.3288

          k = 0.0625 0.3125 0.0000 ( 47799 PWs)   bands (ev):

    -7.6406  -7.3587  -6.9272  -6.3397  -5.5999  -4.7215  -4.2706  -3.9942
    -3.7030  -3.5719  -2.9973  -2.5427  -2.2741  -1.4165  -1.2505  -0.4264
    -0.0280   0.2316   0.2446   0.5933   0.7757   1.0101   1.2140   1.9100
     1.9489   2.5120   2.7414   2.8937   2.9840   3.2773   3.3362   3.4143
     3.4699   3.7431   3.8215   3.8299

          k = 0.0625 0.3750 0.0000 ( 47793 PWs)   bands (ev):

    -7.2500  -6.9687  -6.5382  -5.9521  -5.2142  -4.9998  -4.7221  -4.3380
    -4.2977  -3.7200  -3.3220  -2.9930  -2.1648  -2.1302  -1.1311  -0.8764
    -0.0007   0.3430   0.5997   0.6004   1.0291   1.2858   1.3728   1.5784
     2.2694   2.4544   2.6098   2.7329   3.0837   3.0940   3.1391   3.2319
     3.4845   3.5160   3.6415   3.6922

          k = 0.0625 0.4375 0.0000 ( 47840 PWs)   bands (ev):

    -6.7898  -6.5092  -6.0800  -5.6636  -5.4956  -5.3848  -4.9586  -4.7598
    -4.3784  -3.8861  -3.6480  -2.8733  -2.7810  -1.7763  -1.7198  -0.6337
    -0.4365   0.6199   0.7675   1.0269   1.0690   1.4570   1.8000   1.8492
     2.0079   2.0951   2.1097   2.5145   2.7104   2.8456   3.0676   3.3769
     3.5431   3.6564   3.7438   3.8429

          k = 0.0625-0.5000 0.0000 ( 47854 PWs)   bands (ev):

    -6.2607  -6.2607  -5.9810  -5.9810  -5.5531  -5.5531  -4.9707  -4.9707
    -4.2374  -4.2374  -3.3668  -3.3668  -2.3577  -2.3577  -1.2088  -1.2088
     0.0669   0.0669   1.2314   1.2314   1.5498   1.5498   1.5819   1.5819
     1.9531   1.9531   2.2881   2.2881   2.5108   2.5108   3.2024   3.2024
     3.7640   3.7640   4.0317   4.0317

          k = 0.1250 0.1250 0.0000 ( 47769 PWs)   bands (ev):

    -8.2820  -7.9990  -7.5659  -6.9760  -6.2334  -5.3514  -4.3288  -3.1637
    -1.8657  -1.6285  -1.6285  -1.3579  -1.3579  -0.9459  -0.9459  -0.3876
    -0.3876  -0.3784   0.3306   0.3306   0.4150   1.1802   1.1802   2.1412
     2.1412   2.5447   2.9133   2.9133   3.1788   3.1788   3.2373   3.2373
     3.6766   3.6766   4.0380   4.1596

          k = 0.1250 0.1875 0.0000 ( 47760 PWs)   bands (ev):

    -8.1036  -7.8209  -7.3882  -6.7990  -6.0571  -5.1762  -4.1547  -2.9909
    -2.5256  -2.2526  -1.8364  -1.6945  -1.4595  -1.2714  -1.1893  -0.7776
    -0.5707  -0.2086  -0.1957   0.2706   0.5351   0.5803   1.2733   1.3559
     2.2802   2.4244   2.6943   3.0920   3.2752   3.4177   3.7740   3.8106
     3.9253   3.9896   4.1269   4.3435

          k = 0.1250 0.2500 0.0000 ( 47813 PWs)   bands (ev):

    -7.8541  -7.5718  -7.1398  -6.5515  -5.8108  -4.9312  -3.9113  -3.3752
    -3.1004  -2.7494  -2.6810  -2.1107  -1.4553  -1.3949  -1.2228  -0.9526
    -0.6129  -0.4644   0.0145   0.0281   0.4755   0.7433   0.8115   1.5777
     1.5808   2.5530   2.7955   2.8044   3.2452   3.2984   3.3005   3.6452
     3.6823   3.7251   4.0389   4.2684

          k = 0.1250 0.3125 0.0000 ( 47843 PWs)   bands (ev):

    -7.5340  -7.2522  -6.8210  -6.2339  -5.4946  -4.6168  -4.1665  -3.8903
    -3.5990  -3.4683  -2.8942  -2.4396  -2.1720  -1.3175  -1.1487  -0.9190
    -0.6595  -0.3148  -0.2343   0.3301   0.3466   0.8250   1.0456   1.1083
     1.8612   2.0953   2.2719   2.5611   2.8380   2.9704   3.3148   3.3954
     3.5277   3.8084   3.9220   3.9317

          k = 0.1250 0.3750 0.0000 ( 47819 PWs)   bands (ev):

    -7.1437  -6.8625  -6.4323  -5.8466  -5.1092  -4.8951  -4.6175  -4.2336
    -4.1935  -3.6163  -3.2184  -2.8899  -2.0621  -2.0283  -1.0334  -0.7756
    -0.5515  -0.2746   0.0288   0.2328   0.6900   0.7073   1.3862   1.4087
     1.4697   1.6110   1.8730   2.2484   2.2806   2.8028   2.8377   3.2536
     3.5160   3.5618   3.6692   4.0172

          k = 0.1250 0.4375 0.0000 ( 47791 PWs)   bands (ev):

    -6.6838  -6.4034  -5.9744  -5.5585  -5.3904  -5.2798  -4.8539  -4.6551
    -4.2741  -3.7821  -3.5443  -2.7701  -2.6781  -1.6749  -1.6178  -0.5394
    -0.3381  -0.1089   0.1448   0.5885   0.7696   0.8894   1.1417   1.2214
     1.2455   1.6512   1.8330   1.8926   2.2133   2.2267   2.6559   2.9093
     2.9784   3.6597   3.7453   4.0389

          k = 0.1250-0.5000 0.0000 ( 47842 PWs)   bands (ev):

    -6.1551  -6.1551  -5.8755  -5.8755  -5.4479  -5.4479  -4.8659  -4.8659
    -4.1331  -4.1331  -3.2632  -3.2632  -2.2551  -2.2551  -1.1083  -1.1083
     0.1503   0.1503   0.3832   0.3832   0.6967   0.6967   1.0857   1.0857
     1.6397   1.6397   1.6577   1.6577   2.3508   2.3508   2.3871   2.3871
     3.1909   3.1909   4.1343   4.1343

          k = 0.1875 0.1875 0.0000 ( 47793 PWs)   bands (ev):

    -7.9253  -7.6429  -7.2107  -6.6221  -5.8811  -5.0011  -3.9808  -2.8184
    -2.3548  -2.3548  -2.0824  -2.0824  -1.6673  -1.6673  -1.5237  -1.1051
    -1.1051  -0.3788  -0.3788  -0.0398   0.4778   0.4778   0.7453   1.4509
     1.4509   2.5669   2.5669   2.7304   3.2012   3.2512   3.6781   3.7909
     3.7909   4.2207   4.2711   4.2711

          k = 0.1875 0.2500 0.0000 ( 47795 PWs)   bands (ev):

    -7.6762  -7.3942  -6.9626  -6.3749  -5.6350  -4.7564  -3.7377  -3.2030
    -2.9286  -2.5773  -2.5100  -2.1161  -1.9417  -1.8443  -1.4297  -1.2851
    -1.2368  -0.8425  -0.3863  -0.1100   0.1944   0.6191   0.7212   0.9759
     1.6427   1.7993   2.1609   2.4537   2.7626   2.8641   3.0487   3.1963
     3.4229   3.9889   4.1272   4.3567

          k = 0.1875 0.3125 0.0000 ( 47802 PWs)   bands (ev):

    -7.3564  -7.0749  -6.6442  -6.0577  -5.3193  -4.4425  -3.9932  -3.7172
    -3.4259  -3.2959  -2.7228  -2.2680  -2.0035  -1.8096  -1.5377  -1.2089
    -1.0542  -0.9796  -0.5639  -0.1228   0.1686   0.4872   0.9910   1.0087
     1.2712   1.4390   1.7019   1.9909   2.1107   2.2453   2.6696   3.1145
     3.3453   3.4952   3.6626   4.1994

          k = 0.1875 0.3750 0.0000 ( 47823 PWs)   bands (ev):

    -6.9666  -6.6857  -6.2560  -5.6710  -4.9344  -4.7208  -4.4435  -4.0598
    -4.0200  -3.4436  -3.0459  -2.7185  -1.8914  -1.8603  -1.4358  -1.1761
    -0.8507  -0.7467  -0.6091  -0.1635   0.2921   0.5408   0.6381   0.9660
     1.0079   1.3553   1.4149   1.5806   1.6280   1.9792   2.3407   2.6773
     3.0346   3.4223   3.5162   3.8118

          k = 0.1875 0.4375 0.0000 ( 47828 PWs)   bands (ev):

    -6.5073  -6.2271  -5.7986  -5.3833  -5.2153  -5.1050  -4.6795  -4.4809
    -4.1004  -3.6089  -3.3716  -2.5984  -2.5070  -1.5083  -1.4487  -0.9986
    -0.7200  -0.4302  -0.2213  -0.1862   0.0742   0.2670   0.3904   0.7812
     0.9230   0.9721   1.3276   1.3372   1.8163   2.0522   2.0575   2.3606
     2.8329   2.8960   3.1051   3.8437

          k = 0.1875-0.5000 0.0000 ( 47810 PWs)   bands (ev):

    -5.9792  -5.9792  -5.6999  -5.6999  -5.2728  -5.2728  -4.6914  -4.6914
    -3.9596  -3.9596  -3.0909  -3.0909  -2.0847  -2.0847  -0.9454  -0.9454
    -0.4862  -0.4862  -0.2325  -0.2325   0.2149   0.2149   0.3702   0.3702
     0.7710   0.7710   1.4625   1.4625   1.8391   1.8391   2.2855   2.2855
     2.5918   2.5918   3.3018   3.3018

          k = 0.2500 0.2500 0.0000 ( 47859 PWs)   bands (ev):

    -7.4274  -7.1458  -6.7149  -6.1281  -5.3894  -4.5122  -3.4952  -2.9623
    -2.9623  -2.6886  -2.6886  -2.3367  -2.2714  -2.2714  -1.7060  -1.7060
    -1.0477  -0.9751  -0.9751  -0.1162  -0.1162   0.4194   0.8636   0.8636
     1.2050   1.3792   1.6423   1.9888   1.9888   2.0515   2.6109   3.2420
     3.2420   3.2857   3.4341   4.1417

          k = 0.2500 0.3125 0.0000 ( 47856 PWs)   bands (ev):

    -7.1082  -6.8271  -6.3970  -5.8115  -5.0742  -4.1988  -3.7509  -3.4754
    -3.1840  -3.0551  -2.6537  -2.4842  -2.3807  -2.0284  -1.9640  -1.7755
    -1.3743  -0.9183  -0.7448  -0.6430   0.0849   0.1979   0.5096   0.8355
     0.8840   1.1170   1.2798   1.2917   1.4956   1.8570   2.2452   2.5391
     2.5560   3.3962   3.4869   3.6923

          k = 0.2500 0.3750 0.0000 ( 47843 PWs)   bands (ev):

    -6.7191  -6.4386  -6.0095  -5.4254  -4.6900  -4.4771  -4.2003  -3.8168
    -3.7775  -3.2024  -2.8048  -2.4804  -2.2772  -2.0042  -1.6782  -1.6535
    -1.5231  -1.0249  -0.5955  -0.3885  -0.2923  -0.1173   0.1993   0.5246
     0.5520   0.5914   1.1271   1.1484   1.5389   1.7861   1.8592   1.8654
     2.6676   2.7111   3.2247   3.6596

          k = 0.2500 0.4375 0.0000 ( 47865 PWs)   bands (ev):

    -6.2605  -5.9808  -5.5529  -5.1385  -4.9705  -4.8606  -4.4358  -4.2373
    -3.8578  -3.3669  -3.1305  -2.3588  -2.2696  -1.8335  -1.5731  -1.2559
    -1.2169  -1.1417  -0.7457  -0.5585  -0.4912  -0.1123  -0.0431   0.1008
     0.1501   0.5148   0.9640   1.1856   1.2066   1.5749   1.9549   2.0302
     2.3315   2.6489   3.0367   3.0527

          k = 0.2500-0.5000 0.0000 ( 47812 PWs)   bands (ev):

    -5.7334  -5.7334  -5.4544  -5.4544  -5.0280  -5.0280  -4.4476  -4.4476
    -3.7171  -3.7171  -2.8503  -2.8503  -1.8489  -1.8489  -1.3269  -1.3269
    -1.0474  -1.0474  -0.7612  -0.7612  -0.5549  -0.5549  -0.0582  -0.0582
     0.5881   0.5881   0.6494   0.6494   1.4966   1.4966   2.0311   2.0311
     2.5180   2.5180   2.7763   2.7763

          k = 0.3125 0.3125 0.0000 ( 47893 PWs)   bands (ev):

    -6.7897  -6.5091  -6.0799  -5.4955  -4.7597  -3.8862  -3.4401  -3.4401
    -3.1654  -3.1654  -2.8737  -2.7466  -2.7466  -2.1787  -2.1787  -1.7218
    -1.4450  -1.4450  -0.5855  -0.5855  -0.4560  -0.1818   0.1347   0.3994
     0.3994   0.5273   1.0599   1.0846   1.5298   1.5298   1.7931   1.8023
     2.6486   2.7900   2.7900   3.5973

          k = 0.3125 0.3750 0.0000 ( 47901 PWs)   bands (ev):

    -6.4014  -6.1214  -5.6932  -5.1103  -4.3764  -4.1645  -3.8883  -3.5052
    -3.4667  -3.0614  -2.8939  -2.7874  -2.4961  -2.3692  -2.1823  -1.7785
    -1.3528  -1.3200  -1.0490  -0.8769  -0.6219  -0.3200  -0.1999  -0.1739
    -0.0345   0.3849   0.7173   0.8846   1.0769   1.4418   1.8508   1.9010
     2.1481   2.2008   2.9261   3.0977

          k = 0.3125 0.4375 0.0000 ( 47892 PWs)   bands (ev):

    -5.9439  -5.6646  -5.2376  -4.8243  -4.6564  -4.5469  -4.1231  -3.9248
    -3.5466  -3.0568  -2.8227  -2.6149  -2.3412  -2.0538  -2.0153  -1.8618
    -1.5261  -1.3578  -1.2462  -0.9606  -0.9360  -0.7576  -0.6261  -0.2559
     0.1889   0.2212   0.3862   0.4531   1.2112   1.3019   1.4543   1.8314
     2.3257   2.3432   2.5785   2.8985

          k = 0.3125-0.5000 0.0000 ( 47848 PWs)   bands (ev):

    -5.4179  -5.4179  -5.1395  -5.1395  -4.7139  -4.7139  -4.1348  -4.1348
    -3.4062  -3.4062  -2.5434  -2.5434  -2.1017  -2.1017  -1.8405  -1.8405
    -1.5274  -1.5274  -1.4082  -1.4082  -0.8255  -0.8255  -0.3836  -0.3836
    -0.1140  -0.1140   0.6996   0.6996   0.9201   0.9201   1.6939   1.6939
     2.3864   2.3864   2.7767   2.7767

          k = 0.3750 0.3750 0.0000 ( 47894 PWs)   bands (ev):

    -6.0141  -5.7347  -5.3076  -4.7261  -3.9942  -3.7834  -3.7834  -3.5081
    -3.5081  -3.1258  -3.0881  -3.0881  -2.5185  -2.5185  -2.1222  -1.7832
    -1.7832  -1.5928  -1.3128  -1.0271  -0.9235  -0.9235  -0.8255  -0.3222
     0.0649   0.0649   0.3187   0.3873   1.1986   1.1986   1.2366   1.7646
     2.2612   2.4627   2.4627   2.5125

          k = 0.3750 0.4375 0.0000 ( 47880 PWs)   bands (ev):

    -5.5578  -5.2792  -4.8533  -4.4413  -4.2736  -4.1646  -3.7422  -3.5443
    -3.3348  -3.1682  -3.0603  -2.6805  -2.6411  -2.4546  -2.2365  -2.0498
    -1.9749  -1.6634  -1.5890  -1.5421  -1.3219  -0.9598  -0.5917  -0.5197
    -0.4671  -0.2469   0.4490   0.5666   0.6193   0.7868   1.5626   1.5858
     1.8850   2.2542   2.6459   2.8358

          k = 0.3750-0.5000 0.0000 ( 47954 PWs)   bands (ev):

    -5.0332  -5.0332  -4.7555  -4.7555  -4.3311  -4.3311  -3.7537  -3.7537
    -3.0287  -3.0287  -2.8187  -2.8187  -2.5445  -2.5445  -2.2182  -2.2182
    -2.0663  -2.0663  -1.5587  -1.5587  -1.1412  -1.1412  -0.8277  -0.8277
    -0.0134  -0.0134   0.0212   0.0212   1.0130   1.0130   1.2541   1.2541
     2.1470   2.1470   2.7008   2.7008

          k = 0.4375 0.4375 0.0000 ( 47946 PWs)   bands (ev):

    -5.1030  -4.8251  -4.4005  -3.9902  -3.9902  -3.8229  -3.7145  -3.7145
    -3.2939  -3.2939  -3.0974  -2.8868  -2.7232  -2.7232  -2.6125  -2.2859
    -2.1347  -1.9870  -1.9870  -1.6258  -1.2098  -1.1273  -1.1273  -0.8952
    -0.1368  -0.1368  -0.0809  -0.0456   0.9468   0.9989   0.9989   1.1873
     2.0813   2.2650   2.2650   2.6347

          k = 0.4375-0.5000 0.0000 ( 47970 PWs)   bands (ev):

    -4.5801  -4.5801  -4.3031  -4.3031  -3.8803  -3.8803  -3.4719  -3.4719
    -3.3057  -3.3057  -3.1971  -3.1971  -2.7774  -2.7774  -2.5910  -2.5910
    -2.1860  -2.1860  -1.7239  -1.7239  -1.4588  -1.4588  -0.7279  -0.7279
    -0.6012  -0.6012   0.3144   0.3144   0.4861   0.4861   1.4527   1.4527
     1.7529   1.7529   2.7042   2.7042

          k =-0.5000-0.5000 0.0000 ( 47904 PWs)   bands (ev):

    -4.0592  -4.0592  -4.0592  -4.0592  -3.7834  -3.7834  -3.7834  -3.7834
    -3.3625  -3.3625  -3.3625  -3.3625  -2.7915  -2.7915  -2.7915  -2.7915
    -2.0550  -2.0550  -2.0550  -2.0550  -1.1953  -1.1953  -1.1953  -1.1953
    -0.2041  -0.2041  -0.2041  -0.2041   0.9322   0.9322   0.9322   0.9322
     2.1990   2.1990   2.1990   2.1990

     the Fermi energy is     2.6060 ev

!    total energy              =    -249.1900116297 Ry
     Harris-Foulkes estimate   =    -249.18980889 Ry
     estimated scf accuracy    <          9.7E-09 Ry

     The total energy is the sum of the following terms:

     one-electron contribution =   -1700.61069066 Ry
     hartree contribution      =     868.37142073 Ry
     xc contribution           =    -200.25963781 Ry
     ewald contribution        =     783.30967322 Ry
     smearing contrib. (-TS)   =      -0.00057435 Ry

     convergence has been achieved in   9 iterations

     Forces acting on atoms (Ry/au):


     negative rho (up, down):  6.147E-06 0.000E+00
     atom    1 type  1   force =     0.00000000    0.00000000    0.00013225
     atom    2 type  1   force =     0.00000000    0.00000000    0.00013218
     atom    3 type  1   force =     0.00000000    0.00000000   -0.00098688
     atom    4 type  1   force =     0.00000000    0.00000000   -0.00098688
     atom    5 type  1   force =     0.00000000    0.00000000    0.00045612
     atom    6 type  1   force =     0.00000000    0.00000000    0.00045610
     atom    7 type  1   force =     0.00000000    0.00000000    0.00039393
     atom    8 type  1   force =     0.00000000    0.00000000    0.00039393
     atom    9 type  1   force =     0.00000000    0.00000000    0.00016297
     atom   10 type  1   force =     0.00000000    0.00000000    0.00016299
     atom   11 type  1   force =     0.00000000    0.00000000   -0.00016311
     atom   12 type  1   force =     0.00000000    0.00000000   -0.00016311
     atom   13 type  1   force =     0.00000000    0.00000000   -0.00039368
     atom   14 type  1   force =     0.00000000    0.00000000   -0.00039370
     atom   15 type  1   force =     0.00000000    0.00000000   -0.00045598
     atom   16 type  1   force =     0.00000000    0.00000000   -0.00045598
     atom   17 type  1   force =     0.00000000    0.00000000    0.00098673
     atom   18 type  1   force =     0.00000000    0.00000000    0.00098681
     atom   19 type  1   force =     0.00000000    0.00000000   -0.00013234
     atom   20 type  1   force =     0.00000000    0.00000000   -0.00013234

     Total force =     0.002350  
